
.Version 9.2.2 of ABINIT 
.(MPI version, prepared for a x86_64_linux_intel19.0 computer) 

.Copyright (C) 1998-2020 ABINIT group . 
 ABINIT comes with ABSOLUTELY NO WARRANTY.
 It is free software, and you are welcome to redistribute it
 under certain conditions (GNU General Public License,
 see ~abinit/COPYING or http://www.gnu.org/copyleft/gpl.txt).

 ABINIT is a project of the Universite Catholique de Louvain,
 Corning Inc. and other collaborators, see ~abinit/doc/developers/contributors.txt .
 Please read https://docs.abinit.org/theory/acknowledgments for suggested
 acknowledgments of the ABINIT effort.
 For more information, see https://www.abinit.org .

.Starting date : Wed 27 Jan 2021.
- ( at 13h31 )
  
- input  file    -> BFO_relax.in
- output file    -> BFO_relax.out
- root for input  files -> BFOrelaxi
- root for output files -> BFO_relaxo
 
- inpspheads : Reading pseudopotential header in XML form from 
-   Bi.LDA_PW-JTH.xml
- inpspheads : Reading pseudopotential header in XML form from 
-   Fe.LDA_PW-JTH.xml
- inpspheads : Reading pseudopotential header in XML form from 
-   O.LDA_PW-JTH.xml
 
 DATASET    1 : magnetic group, Shubnikov type III
 Fedorov space group R3 c (#161); Bravais hR (rhombohedral)
 Magnetic point group 3m' (# 31)
================================================================================
 Values of the parameters that define the memory need for DATASET  1.
     intxc =       0    ionmov =      22      iscf =      17    lmnmax =      18
     lnmax =       6     mgfft =      48  mpssoang =       3    mqgrid =    3001
     natom =      10  nloc_mem =       2    nspden =       2   nspinor =       1
    nsppol =       2      nsym =       6    n1xccc =       1    ntypat =       3
    occopt =       7   xclevel =       1
-    mband =          81        mffmem =           1         mkmem =           1
       mpw =        4234          nfft =      110592          nkpt =          14
Pmy_natom=         1
 PAW method is used; the additional fine FFT grid is defined by:
   mgfftf=        64    nfftf =    262144
================================================================================
P This job should need less than                     131.605 Mbytes of memory.
  Rough estimation (10% accuracy) of disk space for files :
_ WF disk file :    146.528 Mbytes ; DEN or POT disk file :      4.002 Mbytes.
================================================================================
 
 
 DATASET    2 : magnetic group, Shubnikov type III
 Fedorov space group R3 c (#161); Bravais hR (rhombohedral)
 Magnetic point group 3m' (# 31)
================================================================================
 Values of the parameters that define the memory need for DATASET  2.
     intxc =       0    ionmov =      22      iscf =      17    lmnmax =      18
     lnmax =       6     mgfft =      48  mpssoang =       3    mqgrid =    3001
     natom =      10  nloc_mem =       2    nspden =       2   nspinor =       1
    nsppol =       2      nsym =       6    n1xccc =       1    ntypat =       3
    occopt =       7   xclevel =       1
-    mband =          81        mffmem =           1         mkmem =           1
       mpw =        4234          nfft =      110592          nkpt =          14
Pmy_natom=         1
 PAW method is used; the additional fine FFT grid is defined by:
   mgfftf=        64    nfftf =    262144
================================================================================
P This job should need less than                     131.605 Mbytes of memory.
  Rough estimation (10% accuracy) of disk space for files :
_ WF disk file :    146.528 Mbytes ; DEN or POT disk file :      4.002 Mbytes.
================================================================================
 
 
 DATASET    3 : magnetic group, Shubnikov type III
 Fedorov space group R3 c (#161); Bravais hR (rhombohedral)
 Magnetic point group 3m' (# 31)
================================================================================
 Values of the parameters that define the memory need for DATASET  3.
     intxc =       0    ionmov =      22      iscf =      17    lmnmax =      18
     lnmax =       6     mgfft =      48  mpssoang =       3    mqgrid =    3001
     natom =      10  nloc_mem =       2    nspden =       2   nspinor =       1
    nsppol =       2      nsym =       6    n1xccc =       1    ntypat =       3
    occopt =       7   xclevel =       1
-    mband =          81        mffmem =           1         mkmem =           1
       mpw =        4234          nfft =      110592          nkpt =          14
Pmy_natom=         1
 PAW method is used; the additional fine FFT grid is defined by:
   mgfftf=        64    nfftf =    262144
================================================================================
P This job should need less than                     131.605 Mbytes of memory.
  Rough estimation (10% accuracy) of disk space for files :
_ WF disk file :    146.528 Mbytes ; DEN or POT disk file :      4.002 Mbytes.
================================================================================
 
 
 DATASET    4 : magnetic group, Shubnikov type III
 Fedorov space group R3 c (#161); Bravais hR (rhombohedral)
 Magnetic point group 3m' (# 31)
================================================================================
 Values of the parameters that define the memory need for DATASET  4.
     intxc =       0    ionmov =      22      iscf =      17    lmnmax =      18
     lnmax =       6     mgfft =      48  mpssoang =       3    mqgrid =    3001
     natom =      10  nloc_mem =       2    nspden =       2   nspinor =       1
    nsppol =       2      nsym =       6    n1xccc =       1    ntypat =       3
    occopt =       7   xclevel =       1
-    mband =          81        mffmem =           1         mkmem =           1
       mpw =        4234          nfft =      110592          nkpt =          14
Pmy_natom=         1
 PAW method is used; the additional fine FFT grid is defined by:
   mgfftf=        64    nfftf =    262144
================================================================================
P This job should need less than                     131.605 Mbytes of memory.
  Rough estimation (10% accuracy) of disk space for files :
_ WF disk file :    146.528 Mbytes ; DEN or POT disk file :      4.002 Mbytes.
================================================================================
 
 
 DATASET    5 : magnetic group, Shubnikov type III
 Fedorov space group R3 c (#161); Bravais hR (rhombohedral)
 Magnetic point group 3m' (# 31)
================================================================================
 Values of the parameters that define the memory need for DATASET  5.
     intxc =       0    ionmov =      22      iscf =      17    lmnmax =      18
     lnmax =       6     mgfft =      48  mpssoang =       3    mqgrid =    3001
     natom =      10  nloc_mem =       2    nspden =       2   nspinor =       1
    nsppol =       2      nsym =       6    n1xccc =       1    ntypat =       3
    occopt =       7   xclevel =       1
-    mband =          81        mffmem =           1         mkmem =           1
       mpw =        4234          nfft =      110592          nkpt =          14
Pmy_natom=         1
 PAW method is used; the additional fine FFT grid is defined by:
   mgfftf=        64    nfftf =    262144
================================================================================
P This job should need less than                     131.605 Mbytes of memory.
  Rough estimation (10% accuracy) of disk space for files :
_ WF disk file :    146.528 Mbytes ; DEN or POT disk file :      4.002 Mbytes.
================================================================================
 
 
 DATASET    6 : magnetic group, Shubnikov type III
 Fedorov space group R3 c (#161); Bravais hR (rhombohedral)
 Magnetic point group 3m' (# 31)
================================================================================
 Values of the parameters that define the memory need for DATASET  6.
     intxc =       0    ionmov =      22      iscf =      17    lmnmax =      18
     lnmax =       6     mgfft =      48  mpssoang =       3    mqgrid =    3001
     natom =      10  nloc_mem =       2    nspden =       2   nspinor =       1
    nsppol =       2      nsym =       6    n1xccc =       1    ntypat =       3
    occopt =       7   xclevel =       1
-    mband =          81        mffmem =           1         mkmem =           1
       mpw =        4234          nfft =      110592          nkpt =          14
Pmy_natom=         1
 PAW method is used; the additional fine FFT grid is defined by:
   mgfftf=        64    nfftf =    262144
================================================================================
P This job should need less than                     131.605 Mbytes of memory.
  Rough estimation (10% accuracy) of disk space for files :
_ WF disk file :    146.528 Mbytes ; DEN or POT disk file :      4.002 Mbytes.
================================================================================
 
 
 DATASET    7 : magnetic group, Shubnikov type III
 Fedorov space group R3 c (#161); Bravais hR (rhombohedral)
 Magnetic point group 3m' (# 31)
================================================================================
 Values of the parameters that define the memory need for DATASET  7.
     intxc =       0    ionmov =      22      iscf =      17    lmnmax =      18
     lnmax =       6     mgfft =      48  mpssoang =       3    mqgrid =    3001
     natom =      10  nloc_mem =       2    nspden =       2   nspinor =       1
    nsppol =       2      nsym =       6    n1xccc =       1    ntypat =       3
    occopt =       7   xclevel =       1
-    mband =          81        mffmem =           1         mkmem =           1
       mpw =        4234          nfft =      110592          nkpt =          14
Pmy_natom=         1
 PAW method is used; the additional fine FFT grid is defined by:
   mgfftf=        64    nfftf =    262144
================================================================================
P This job should need less than                     131.605 Mbytes of memory.
  Rough estimation (10% accuracy) of disk space for files :
_ WF disk file :    146.528 Mbytes ; DEN or POT disk file :      4.002 Mbytes.
================================================================================
 
 
 DATASET    8 : magnetic group, Shubnikov type III
 Fedorov space group R3 c (#161); Bravais hR (rhombohedral)
 Magnetic point group 3m' (# 31)
================================================================================
 Values of the parameters that define the memory need for DATASET  8.
     intxc =       0    ionmov =      22      iscf =      17    lmnmax =      18
     lnmax =       6     mgfft =      48  mpssoang =       3    mqgrid =    3001
     natom =      10  nloc_mem =       2    nspden =       2   nspinor =       1
    nsppol =       2      nsym =       6    n1xccc =       1    ntypat =       3
    occopt =       7   xclevel =       1
-    mband =          81        mffmem =           1         mkmem =           1
       mpw =        4234          nfft =      110592          nkpt =          14
Pmy_natom=         1
 PAW method is used; the additional fine FFT grid is defined by:
   mgfftf=        64    nfftf =    262144
================================================================================
P This job should need less than                     131.605 Mbytes of memory.
  Rough estimation (10% accuracy) of disk space for files :
_ WF disk file :    146.528 Mbytes ; DEN or POT disk file :      4.002 Mbytes.
================================================================================
 
 
 DATASET    9 : magnetic group, Shubnikov type III
 Fedorov space group R3 c (#161); Bravais hR (rhombohedral)
 Magnetic point group 3m' (# 31)
================================================================================
 Values of the parameters that define the memory need for DATASET  9.
     intxc =       0    ionmov =      22      iscf =      17    lmnmax =      18
     lnmax =       6     mgfft =      48  mpssoang =       3    mqgrid =    3001
     natom =      10  nloc_mem =       2    nspden =       2   nspinor =       1
    nsppol =       2      nsym =       6    n1xccc =       1    ntypat =       3
    occopt =       7   xclevel =       1
-    mband =          81        mffmem =           1         mkmem =           1
       mpw =        4234          nfft =      110592          nkpt =          14
Pmy_natom=         1
 PAW method is used; the additional fine FFT grid is defined by:
   mgfftf=        64    nfftf =    262144
================================================================================
P This job should need less than                     131.605 Mbytes of memory.
  Rough estimation (10% accuracy) of disk space for files :
_ WF disk file :    146.528 Mbytes ; DEN or POT disk file :      4.002 Mbytes.
================================================================================
 
 
 DATASET   10 : magnetic group, Shubnikov type III
 Fedorov space group R3 c (#161); Bravais hR (rhombohedral)
 Magnetic point group 3m' (# 31)
================================================================================
 Values of the parameters that define the memory need for DATASET 10.
     intxc =       0    ionmov =      22      iscf =      17    lmnmax =      18
     lnmax =       6     mgfft =      48  mpssoang =       3    mqgrid =    3001
     natom =      10  nloc_mem =       2    nspden =       2   nspinor =       1
    nsppol =       2      nsym =       6    n1xccc =       1    ntypat =       3
    occopt =       7   xclevel =       1
-    mband =          81        mffmem =           1         mkmem =           1
       mpw =        4234          nfft =      110592          nkpt =          14
Pmy_natom=         1
 PAW method is used; the additional fine FFT grid is defined by:
   mgfftf=        64    nfftf =    262144
================================================================================
P This job should need less than                     131.605 Mbytes of memory.
  Rough estimation (10% accuracy) of disk space for files :
_ WF disk file :    146.528 Mbytes ; DEN or POT disk file :      4.002 Mbytes.
================================================================================
 
 
 DATASET   11 : magnetic group, Shubnikov type III
 Fedorov space group R3 c (#161); Bravais hR (rhombohedral)
 Magnetic point group 3m' (# 31)
================================================================================
 Values of the parameters that define the memory need for DATASET 11.
     intxc =       0    ionmov =      22      iscf =      17    lmnmax =      18
     lnmax =       6     mgfft =      48  mpssoang =       3    mqgrid =    3001
     natom =      10  nloc_mem =       2    nspden =       2   nspinor =       1
    nsppol =       2      nsym =       6    n1xccc =       1    ntypat =       3
    occopt =       7   xclevel =       1
-    mband =          81        mffmem =           1         mkmem =           1
       mpw =        4234          nfft =      110592          nkpt =          14
Pmy_natom=         1
 PAW method is used; the additional fine FFT grid is defined by:
   mgfftf=        64    nfftf =    262144
================================================================================
P This job should need less than                     131.605 Mbytes of memory.
  Rough estimation (10% accuracy) of disk space for files :
_ WF disk file :    146.528 Mbytes ; DEN or POT disk file :      4.002 Mbytes.
================================================================================
 
--------------------------------------------------------------------------------
------------- Echo of variables that govern the present computation ------------
--------------------------------------------------------------------------------
-
- outvars: echo of selected default values                                      
-   iomode0 =  0 , fftalg0 =512 , wfoptalg0 = 10
-
- outvars: echo of global parameters not present in the input file              
-  max_nthreads =    0
-
 -outvars: echo values of preprocessed input variables --------
            acell      1.0578138687E+01  1.0578138687E+01  1.0578138687E+01 Bohr
              amu      2.08980370E+02  5.58470000E+01  1.59994000E+01
           diemac      1.20000000E+01
          dilatmx      1.05000000E+00
             ecut      2.00000000E+01 Hartree
           ecutsm      5.00000000E-01 Hartree
-          fftalg         112
           getwfk          -1
           ionmov          22
           istwfk        1    0    1    0    0    0    0    1    0    0
                         0    0    0    1
              ixc       -1012
           jdtset        1    2    3    4    5    6    7    8    9   10
                        11
              kpt      0.00000000E+00  0.00000000E+00  0.00000000E+00
                       2.50000000E-01  0.00000000E+00  0.00000000E+00
                       5.00000000E-01  0.00000000E+00  0.00000000E+00
                       2.50000000E-01  2.50000000E-01  0.00000000E+00
                       5.00000000E-01  2.50000000E-01  0.00000000E+00
                      -2.50000000E-01  2.50000000E-01  0.00000000E+00
                       2.50000000E-01  5.00000000E-01  0.00000000E+00
                       5.00000000E-01  5.00000000E-01  0.00000000E+00
                       2.50000000E-01  2.50000000E-01  2.50000000E-01
                       5.00000000E-01  2.50000000E-01  2.50000000E-01
                      -2.50000000E-01  2.50000000E-01  2.50000000E-01
                       5.00000000E-01  5.00000000E-01  2.50000000E-01
                      -2.50000000E-01  5.00000000E-01  2.50000000E-01
                       5.00000000E-01  5.00000000E-01  5.00000000E-01
         kptrlatt        4    0    0      0    4    0      0    0    4
          kptrlen      4.23125547E+01
            lpawu          -1       2      -1
P           mkmem           1
            natom          10
            nband          81
           ndtset          11
            ngfft          48      48      48
          ngfftdg          64      64      64
             nkpt          14
           nspden           2
           nsppol           2
            nstep         100
             nsym           6
            ntime          30
           ntypat           3
              occ      1.000000  1.000000  1.000000  1.000000  1.000000  1.000000
                       1.000000  1.000000  1.000000  1.000000  1.000000  1.000000
                       1.000000  1.000000  1.000000  1.000000  1.000000  1.000000
                       1.000000  1.000000  1.000000  1.000000  1.000000  1.000000
                       1.000000  1.000000  1.000000  1.000000  1.000000  1.000000
                       1.000000  1.000000  1.000000  1.000000  1.000000  1.000000
                       1.000000  1.000000  1.000000  1.000000  1.000000  1.000000
                       1.000000  1.000000  1.000000  1.000000  1.000000  1.000000
                       1.000000  0.000000  0.000000  0.000000  0.000000  0.000000
                       0.000000  0.000000  0.000000  0.000000  0.000000  0.000000
                       0.000000  0.000000  0.000000  0.000000  0.000000  0.000000
                       0.000000  0.000000  0.000000  0.000000  0.000000  0.000000
                       0.000000  0.000000  0.000000  0.000000  0.000000  0.000000
                       0.000000  0.000000  0.000000
                       1.000000  1.000000  1.000000  1.000000  1.000000  1.000000
                       1.000000  1.000000  1.000000  1.000000  1.000000  1.000000
                       1.000000  1.000000  1.000000  1.000000  1.000000  1.000000
                       1.000000  1.000000  1.000000  1.000000  1.000000  1.000000
                       1.000000  1.000000  1.000000  1.000000  1.000000  1.000000
                       1.000000  1.000000  1.000000  1.000000  1.000000  1.000000
                       1.000000  1.000000  1.000000  1.000000  1.000000  1.000000
                       1.000000  1.000000  1.000000  1.000000  1.000000  1.000000
                       1.000000  0.000000  0.000000  0.000000  0.000000  0.000000
                       0.000000  0.000000  0.000000  0.000000  0.000000  0.000000
                       0.000000  0.000000  0.000000  0.000000  0.000000  0.000000
                       0.000000  0.000000  0.000000  0.000000  0.000000  0.000000
                       0.000000  0.000000  0.000000  0.000000  0.000000  0.000000
                       0.000000  0.000000  0.000000
                       1.000000  1.000000  1.000000  1.000000  1.000000  1.000000
                       1.000000  1.000000  1.000000  1.000000  1.000000  1.000000
                       1.000000  1.000000  1.000000  1.000000  1.000000  1.000000
                       1.000000  1.000000  1.000000  1.000000  1.000000  1.000000
                       1.000000  1.000000  1.000000  1.000000  1.000000  1.000000
                       1.000000  1.000000  1.000000  1.000000  1.000000  1.000000
                       1.000000  1.000000  1.000000  1.000000  1.000000  1.000000
                       1.000000  1.000000  1.000000  1.000000  1.000000  1.000000
                       1.000000  0.000000  0.000000  0.000000  0.000000  0.000000
                       0.000000  0.000000  0.000000  0.000000  0.000000  0.000000
                       0.000000  0.000000  0.000000  0.000000  0.000000  0.000000
                       0.000000  0.000000  0.000000  0.000000  0.000000  0.000000
                       0.000000  0.000000  0.000000  0.000000  0.000000  0.000000
                       0.000000  0.000000  0.000000
                       1.000000  1.000000  1.000000  1.000000  1.000000  1.000000
                       1.000000  1.000000  1.000000  1.000000  1.000000  1.000000
                       1.000000  1.000000  1.000000  1.000000  1.000000  1.000000
                       1.000000  1.000000  1.000000  1.000000  1.000000  1.000000
                       1.000000  1.000000  1.000000  1.000000  1.000000  1.000000
                       1.000000  1.000000  1.000000  1.000000  1.000000  1.000000
                       1.000000  1.000000  1.000000  1.000000  1.000000  1.000000
                       1.000000  1.000000  1.000000  1.000000  1.000000  1.000000
                       1.000000  0.000000  0.000000  0.000000  0.000000  0.000000
                       0.000000  0.000000  0.000000  0.000000  0.000000  0.000000
                       0.000000  0.000000  0.000000  0.000000  0.000000  0.000000
                       0.000000  0.000000  0.000000  0.000000  0.000000  0.000000
                       0.000000  0.000000  0.000000  0.000000  0.000000  0.000000
                       0.000000  0.000000  0.000000
                       1.000000  1.000000  1.000000  1.000000  1.000000  1.000000
                       1.000000  1.000000  1.000000  1.000000  1.000000  1.000000
                       1.000000  1.000000  1.000000  1.000000  1.000000  1.000000
                       1.000000  1.000000  1.000000  1.000000  1.000000  1.000000
                       1.000000  1.000000  1.000000  1.000000  1.000000  1.000000
                       1.000000  1.000000  1.000000  1.000000  1.000000  1.000000
                       1.000000  1.000000  1.000000  1.000000  1.000000  1.000000
                       1.000000  1.000000  1.000000  1.000000  1.000000  1.000000
                       1.000000  0.000000  0.000000  0.000000  0.000000  0.000000
                       0.000000  0.000000  0.000000  0.000000  0.000000  0.000000
                       0.000000  0.000000  0.000000  0.000000  0.000000  0.000000
                       0.000000  0.000000  0.000000  0.000000  0.000000  0.000000
                       0.000000  0.000000  0.000000  0.000000  0.000000  0.000000
                       0.000000  0.000000  0.000000
                       1.000000  1.000000  1.000000  1.000000  1.000000  1.000000
                       1.000000  1.000000  1.000000  1.000000  1.000000  1.000000
                       1.000000  1.000000  1.000000  1.000000  1.000000  1.000000
                       1.000000  1.000000  1.000000  1.000000  1.000000  1.000000
                       1.000000  1.000000  1.000000  1.000000  1.000000  1.000000
                       1.000000  1.000000  1.000000  1.000000  1.000000  1.000000
                       1.000000  1.000000  1.000000  1.000000  1.000000  1.000000
                       1.000000  1.000000  1.000000  1.000000  1.000000  1.000000
                       1.000000  0.000000  0.000000  0.000000  0.000000  0.000000
                       0.000000  0.000000  0.000000  0.000000  0.000000  0.000000
                       0.000000  0.000000  0.000000  0.000000  0.000000  0.000000
                       0.000000  0.000000  0.000000  0.000000  0.000000  0.000000
                       0.000000  0.000000  0.000000  0.000000  0.000000  0.000000
                       0.000000  0.000000  0.000000
                       1.000000  1.000000  1.000000  1.000000  1.000000  1.000000
                       1.000000  1.000000  1.000000  1.000000  1.000000  1.000000
                       1.000000  1.000000  1.000000  1.000000  1.000000  1.000000
                       1.000000  1.000000  1.000000  1.000000  1.000000  1.000000
                       1.000000  1.000000  1.000000  1.000000  1.000000  1.000000
                       1.000000  1.000000  1.000000  1.000000  1.000000  1.000000
                       1.000000  1.000000  1.000000  1.000000  1.000000  1.000000
                       1.000000  1.000000  1.000000  1.000000  1.000000  1.000000
                       1.000000  0.000000  0.000000  0.000000  0.000000  0.000000
                       0.000000  0.000000  0.000000  0.000000  0.000000  0.000000
                       0.000000  0.000000  0.000000  0.000000  0.000000  0.000000
                       0.000000  0.000000  0.000000  0.000000  0.000000  0.000000
                       0.000000  0.000000  0.000000  0.000000  0.000000  0.000000
                       0.000000  0.000000  0.000000
                       1.000000  1.000000  1.000000  1.000000  1.000000  1.000000
                       1.000000  1.000000  1.000000  1.000000  1.000000  1.000000
                       1.000000  1.000000  1.000000  1.000000  1.000000  1.000000
                       1.000000  1.000000  1.000000  1.000000  1.000000  1.000000
                       1.000000  1.000000  1.000000  1.000000  1.000000  1.000000
                       1.000000  1.000000  1.000000  1.000000  1.000000  1.000000
                       1.000000  1.000000  1.000000  1.000000  1.000000  1.000000
                       1.000000  1.000000  1.000000  1.000000  1.000000  1.000000
                       1.000000  0.000000  0.000000  0.000000  0.000000  0.000000
                       0.000000  0.000000  0.000000  0.000000  0.000000  0.000000
                       0.000000  0.000000  0.000000  0.000000  0.000000  0.000000
                       0.000000  0.000000  0.000000  0.000000  0.000000  0.000000
                       0.000000  0.000000  0.000000  0.000000  0.000000  0.000000
                       0.000000  0.000000  0.000000
                       1.000000  1.000000  1.000000  1.000000  1.000000  1.000000
                       1.000000  1.000000  1.000000  1.000000  1.000000  1.000000
                       1.000000  1.000000  1.000000  1.000000  1.000000  1.000000
                       1.000000  1.000000  1.000000  1.000000  1.000000  1.000000
                       1.000000  1.000000  1.000000  1.000000  1.000000  1.000000
                       1.000000  1.000000  1.000000  1.000000  1.000000  1.000000
                       1.000000  1.000000  1.000000  1.000000  1.000000  1.000000
                       1.000000  1.000000  1.000000  1.000000  1.000000  1.000000
                       1.000000  0.000000  0.000000  0.000000  0.000000  0.000000
                       0.000000  0.000000  0.000000  0.000000  0.000000  0.000000
                       0.000000  0.000000  0.000000  0.000000  0.000000  0.000000
                       0.000000  0.000000  0.000000  0.000000  0.000000  0.000000
                       0.000000  0.000000  0.000000  0.000000  0.000000  0.000000
                       0.000000  0.000000  0.000000
                       1.000000  1.000000  1.000000  1.000000  1.000000  1.000000
                       1.000000  1.000000  1.000000  1.000000  1.000000  1.000000
                       1.000000  1.000000  1.000000  1.000000  1.000000  1.000000
                       1.000000  1.000000  1.000000  1.000000  1.000000  1.000000
                       1.000000  1.000000  1.000000  1.000000  1.000000  1.000000
                       1.000000  1.000000  1.000000  1.000000  1.000000  1.000000
                       1.000000  1.000000  1.000000  1.000000  1.000000  1.000000
                       1.000000  1.000000  1.000000  1.000000  1.000000  1.000000
                       1.000000  0.000000  0.000000  0.000000  0.000000  0.000000
                       0.000000  0.000000  0.000000  0.000000  0.000000  0.000000
                       0.000000  0.000000  0.000000  0.000000  0.000000  0.000000
                       0.000000  0.000000  0.000000  0.000000  0.000000  0.000000
                       0.000000  0.000000  0.000000  0.000000  0.000000  0.000000
                       0.000000  0.000000  0.000000
                       1.000000  1.000000  1.000000  1.000000  1.000000  1.000000
                       1.000000  1.000000  1.000000  1.000000  1.000000  1.000000
                       1.000000  1.000000  1.000000  1.000000  1.000000  1.000000
                       1.000000  1.000000  1.000000  1.000000  1.000000  1.000000
                       1.000000  1.000000  1.000000  1.000000  1.000000  1.000000
                       1.000000  1.000000  1.000000  1.000000  1.000000  1.000000
                       1.000000  1.000000  1.000000  1.000000  1.000000  1.000000
                       1.000000  1.000000  1.000000  1.000000  1.000000  1.000000
                       1.000000  0.000000  0.000000  0.000000  0.000000  0.000000
                       0.000000  0.000000  0.000000  0.000000  0.000000  0.000000
                       0.000000  0.000000  0.000000  0.000000  0.000000  0.000000
                       0.000000  0.000000  0.000000  0.000000  0.000000  0.000000
                       0.000000  0.000000  0.000000  0.000000  0.000000  0.000000
                       0.000000  0.000000  0.000000
                       1.000000  1.000000  1.000000  1.000000  1.000000  1.000000
                       1.000000  1.000000  1.000000  1.000000  1.000000  1.000000
                       1.000000  1.000000  1.000000  1.000000  1.000000  1.000000
                       1.000000  1.000000  1.000000  1.000000  1.000000  1.000000
                       1.000000  1.000000  1.000000  1.000000  1.000000  1.000000
                       1.000000  1.000000  1.000000  1.000000  1.000000  1.000000
                       1.000000  1.000000  1.000000  1.000000  1.000000  1.000000
                       1.000000  1.000000  1.000000  1.000000  1.000000  1.000000
                       1.000000  0.000000  0.000000  0.000000  0.000000  0.000000
                       0.000000  0.000000  0.000000  0.000000  0.000000  0.000000
                       0.000000  0.000000  0.000000  0.000000  0.000000  0.000000
                       0.000000  0.000000  0.000000  0.000000  0.000000  0.000000
                       0.000000  0.000000  0.000000  0.000000  0.000000  0.000000
                       0.000000  0.000000  0.000000
                       1.000000  1.000000  1.000000  1.000000  1.000000  1.000000
                       1.000000  1.000000  1.000000  1.000000  1.000000  1.000000
                       1.000000  1.000000  1.000000  1.000000  1.000000  1.000000
                       1.000000  1.000000  1.000000  1.000000  1.000000  1.000000
                       1.000000  1.000000  1.000000  1.000000  1.000000  1.000000
                       1.000000  1.000000  1.000000  1.000000  1.000000  1.000000
                       1.000000  1.000000  1.000000  1.000000  1.000000  1.000000
                       1.000000  1.000000  1.000000  1.000000  1.000000  1.000000
                       1.000000  0.000000  0.000000  0.000000  0.000000  0.000000
                       0.000000  0.000000  0.000000  0.000000  0.000000  0.000000
                       0.000000  0.000000  0.000000  0.000000  0.000000  0.000000
                       0.000000  0.000000  0.000000  0.000000  0.000000  0.000000
                       0.000000  0.000000  0.000000  0.000000  0.000000  0.000000
                       0.000000  0.000000  0.000000
                       1.000000  1.000000  1.000000  1.000000  1.000000  1.000000
                       1.000000  1.000000  1.000000  1.000000  1.000000  1.000000
                       1.000000  1.000000  1.000000  1.000000  1.000000  1.000000
                       1.000000  1.000000  1.000000  1.000000  1.000000  1.000000
                       1.000000  1.000000  1.000000  1.000000  1.000000  1.000000
                       1.000000  1.000000  1.000000  1.000000  1.000000  1.000000
                       1.000000  1.000000  1.000000  1.000000  1.000000  1.000000
                       1.000000  1.000000  1.000000  1.000000  1.000000  1.000000
                       1.000000  0.000000  0.000000  0.000000  0.000000  0.000000
                       0.000000  0.000000  0.000000  0.000000  0.000000  0.000000
                       0.000000  0.000000  0.000000  0.000000  0.000000  0.000000
                       0.000000  0.000000  0.000000  0.000000  0.000000  0.000000
                       0.000000  0.000000  0.000000  0.000000  0.000000  0.000000
                       0.000000  0.000000  0.000000
                       1.000000  1.000000  1.000000  1.000000  1.000000  1.000000
                       1.000000  1.000000  1.000000  1.000000  1.000000  1.000000
                       1.000000  1.000000  1.000000  1.000000  1.000000  1.000000
                       1.000000  1.000000  1.000000  1.000000  1.000000  1.000000
                       1.000000  1.000000  1.000000  1.000000  1.000000  1.000000
                       1.000000  1.000000  1.000000  1.000000  1.000000  1.000000
                       1.000000  1.000000  1.000000  1.000000  1.000000  1.000000
                       1.000000  1.000000  1.000000  1.000000  1.000000  1.000000
                       1.000000  0.000000  0.000000  0.000000  0.000000  0.000000
                       0.000000  0.000000  0.000000  0.000000  0.000000  0.000000
                       0.000000  0.000000  0.000000  0.000000  0.000000  0.000000
                       0.000000  0.000000  0.000000  0.000000  0.000000  0.000000
                       0.000000  0.000000  0.000000  0.000000  0.000000  0.000000
                       0.000000  0.000000  0.000000
                       1.000000  1.000000  1.000000  1.000000  1.000000  1.000000
                       1.000000  1.000000  1.000000  1.000000  1.000000  1.000000
                       1.000000  1.000000  1.000000  1.000000  1.000000  1.000000
                       1.000000  1.000000  1.000000  1.000000  1.000000  1.000000
                       1.000000  1.000000  1.000000  1.000000  1.000000  1.000000
                       1.000000  1.000000  1.000000  1.000000  1.000000  1.000000
                       1.000000  1.000000  1.000000  1.000000  1.000000  1.000000
                       1.000000  1.000000  1.000000  1.000000  1.000000  1.000000
                       1.000000  0.000000  0.000000  0.000000  0.000000  0.000000
                       0.000000  0.000000  0.000000  0.000000  0.000000  0.000000
                       0.000000  0.000000  0.000000  0.000000  0.000000  0.000000
                       0.000000  0.000000  0.000000  0.000000  0.000000  0.000000
                       0.000000  0.000000  0.000000  0.000000  0.000000  0.000000
                       0.000000  0.000000  0.000000
                       1.000000  1.000000  1.000000  1.000000  1.000000  1.000000
                       1.000000  1.000000  1.000000  1.000000  1.000000  1.000000
                       1.000000  1.000000  1.000000  1.000000  1.000000  1.000000
                       1.000000  1.000000  1.000000  1.000000  1.000000  1.000000
                       1.000000  1.000000  1.000000  1.000000  1.000000  1.000000
                       1.000000  1.000000  1.000000  1.000000  1.000000  1.000000
                       1.000000  1.000000  1.000000  1.000000  1.000000  1.000000
                       1.000000  1.000000  1.000000  1.000000  1.000000  1.000000
                       1.000000  0.000000  0.000000  0.000000  0.000000  0.000000
                       0.000000  0.000000  0.000000  0.000000  0.000000  0.000000
                       0.000000  0.000000  0.000000  0.000000  0.000000  0.000000
                       0.000000  0.000000  0.000000  0.000000  0.000000  0.000000
                       0.000000  0.000000  0.000000  0.000000  0.000000  0.000000
                       0.000000  0.000000  0.000000
                       1.000000  1.000000  1.000000  1.000000  1.000000  1.000000
                       1.000000  1.000000  1.000000  1.000000  1.000000  1.000000
                       1.000000  1.000000  1.000000  1.000000  1.000000  1.000000
                       1.000000  1.000000  1.000000  1.000000  1.000000  1.000000
                       1.000000  1.000000  1.000000  1.000000  1.000000  1.000000
                       1.000000  1.000000  1.000000  1.000000  1.000000  1.000000
                       1.000000  1.000000  1.000000  1.000000  1.000000  1.000000
                       1.000000  1.000000  1.000000  1.000000  1.000000  1.000000
                       1.000000  0.000000  0.000000  0.000000  0.000000  0.000000
                       0.000000  0.000000  0.000000  0.000000  0.000000  0.000000
                       0.000000  0.000000  0.000000  0.000000  0.000000  0.000000
                       0.000000  0.000000  0.000000  0.000000  0.000000  0.000000
                       0.000000  0.000000  0.000000  0.000000  0.000000  0.000000
                       0.000000  0.000000  0.000000
                       1.000000  1.000000  1.000000  1.000000  1.000000  1.000000
                       1.000000  1.000000  1.000000  1.000000  1.000000  1.000000
                       1.000000  1.000000  1.000000  1.000000  1.000000  1.000000
                       1.000000  1.000000  1.000000  1.000000  1.000000  1.000000
                       1.000000  1.000000  1.000000  1.000000  1.000000  1.000000
                       1.000000  1.000000  1.000000  1.000000  1.000000  1.000000
                       1.000000  1.000000  1.000000  1.000000  1.000000  1.000000
                       1.000000  1.000000  1.000000  1.000000  1.000000  1.000000
                       1.000000  0.000000  0.000000  0.000000  0.000000  0.000000
                       0.000000  0.000000  0.000000  0.000000  0.000000  0.000000
                       0.000000  0.000000  0.000000  0.000000  0.000000  0.000000
                       0.000000  0.000000  0.000000  0.000000  0.000000  0.000000
                       0.000000  0.000000  0.000000  0.000000  0.000000  0.000000
                       0.000000  0.000000  0.000000
                       1.000000  1.000000  1.000000  1.000000  1.000000  1.000000
                       1.000000  1.000000  1.000000  1.000000  1.000000  1.000000
                       1.000000  1.000000  1.000000  1.000000  1.000000  1.000000
                       1.000000  1.000000  1.000000  1.000000  1.000000  1.000000
                       1.000000  1.000000  1.000000  1.000000  1.000000  1.000000
                       1.000000  1.000000  1.000000  1.000000  1.000000  1.000000
                       1.000000  1.000000  1.000000  1.000000  1.000000  1.000000
                       1.000000  1.000000  1.000000  1.000000  1.000000  1.000000
                       1.000000  0.000000  0.000000  0.000000  0.000000  0.000000
                       0.000000  0.000000  0.000000  0.000000  0.000000  0.000000
                       0.000000  0.000000  0.000000  0.000000  0.000000  0.000000
                       0.000000  0.000000  0.000000  0.000000  0.000000  0.000000
                       0.000000  0.000000  0.000000  0.000000  0.000000  0.000000
                       0.000000  0.000000  0.000000
                       1.000000  1.000000  1.000000  1.000000  1.000000  1.000000
                       1.000000  1.000000  1.000000  1.000000  1.000000  1.000000
                       1.000000  1.000000  1.000000  1.000000  1.000000  1.000000
                       1.000000  1.000000  1.000000  1.000000  1.000000  1.000000
                       1.000000  1.000000  1.000000  1.000000  1.000000  1.000000
                       1.000000  1.000000  1.000000  1.000000  1.000000  1.000000
                       1.000000  1.000000  1.000000  1.000000  1.000000  1.000000
                       1.000000  1.000000  1.000000  1.000000  1.000000  1.000000
                       1.000000  0.000000  0.000000  0.000000  0.000000  0.000000
                       0.000000  0.000000  0.000000  0.000000  0.000000  0.000000
                       0.000000  0.000000  0.000000  0.000000  0.000000  0.000000
                       0.000000  0.000000  0.000000  0.000000  0.000000  0.000000
                       0.000000  0.000000  0.000000  0.000000  0.000000  0.000000
                       0.000000  0.000000  0.000000
                       1.000000  1.000000  1.000000  1.000000  1.000000  1.000000
                       1.000000  1.000000  1.000000  1.000000  1.000000  1.000000
                       1.000000  1.000000  1.000000  1.000000  1.000000  1.000000
                       1.000000  1.000000  1.000000  1.000000  1.000000  1.000000
                       1.000000  1.000000  1.000000  1.000000  1.000000  1.000000
                       1.000000  1.000000  1.000000  1.000000  1.000000  1.000000
                       1.000000  1.000000  1.000000  1.000000  1.000000  1.000000
                       1.000000  1.000000  1.000000  1.000000  1.000000  1.000000
                       1.000000  0.000000  0.000000  0.000000  0.000000  0.000000
                       0.000000  0.000000  0.000000  0.000000  0.000000  0.000000
                       0.000000  0.000000  0.000000  0.000000  0.000000  0.000000
                       0.000000  0.000000  0.000000  0.000000  0.000000  0.000000
                       0.000000  0.000000  0.000000  0.000000  0.000000  0.000000
                       0.000000  0.000000  0.000000
                       1.000000  1.000000  1.000000  1.000000  1.000000  1.000000
                       1.000000  1.000000  1.000000  1.000000  1.000000  1.000000
                       1.000000  1.000000  1.000000  1.000000  1.000000  1.000000
                       1.000000  1.000000  1.000000  1.000000  1.000000  1.000000
                       1.000000  1.000000  1.000000  1.000000  1.000000  1.000000
                       1.000000  1.000000  1.000000  1.000000  1.000000  1.000000
                       1.000000  1.000000  1.000000  1.000000  1.000000  1.000000
                       1.000000  1.000000  1.000000  1.000000  1.000000  1.000000
                       1.000000  0.000000  0.000000  0.000000  0.000000  0.000000
                       0.000000  0.000000  0.000000  0.000000  0.000000  0.000000
                       0.000000  0.000000  0.000000  0.000000  0.000000  0.000000
                       0.000000  0.000000  0.000000  0.000000  0.000000  0.000000
                       0.000000  0.000000  0.000000  0.000000  0.000000  0.000000
                       0.000000  0.000000  0.000000
                       1.000000  1.000000  1.000000  1.000000  1.000000  1.000000
                       1.000000  1.000000  1.000000  1.000000  1.000000  1.000000
                       1.000000  1.000000  1.000000  1.000000  1.000000  1.000000
                       1.000000  1.000000  1.000000  1.000000  1.000000  1.000000
                       1.000000  1.000000  1.000000  1.000000  1.000000  1.000000
                       1.000000  1.000000  1.000000  1.000000  1.000000  1.000000
                       1.000000  1.000000  1.000000  1.000000  1.000000  1.000000
                       1.000000  1.000000  1.000000  1.000000  1.000000  1.000000
                       1.000000  0.000000  0.000000  0.000000  0.000000  0.000000
                       0.000000  0.000000  0.000000  0.000000  0.000000  0.000000
                       0.000000  0.000000  0.000000  0.000000  0.000000  0.000000
                       0.000000  0.000000  0.000000  0.000000  0.000000  0.000000
                       0.000000  0.000000  0.000000  0.000000  0.000000  0.000000
                       0.000000  0.000000  0.000000
                       1.000000  1.000000  1.000000  1.000000  1.000000  1.000000
                       1.000000  1.000000  1.000000  1.000000  1.000000  1.000000
                       1.000000  1.000000  1.000000  1.000000  1.000000  1.000000
                       1.000000  1.000000  1.000000  1.000000  1.000000  1.000000
                       1.000000  1.000000  1.000000  1.000000  1.000000  1.000000
                       1.000000  1.000000  1.000000  1.000000  1.000000  1.000000
                       1.000000  1.000000  1.000000  1.000000  1.000000  1.000000
                       1.000000  1.000000  1.000000  1.000000  1.000000  1.000000
                       1.000000  0.000000  0.000000  0.000000  0.000000  0.000000
                       0.000000  0.000000  0.000000  0.000000  0.000000  0.000000
                       0.000000  0.000000  0.000000  0.000000  0.000000  0.000000
                       0.000000  0.000000  0.000000  0.000000  0.000000  0.000000
                       0.000000  0.000000  0.000000  0.000000  0.000000  0.000000
                       0.000000  0.000000  0.000000
                       1.000000  1.000000  1.000000  1.000000  1.000000  1.000000
                       1.000000  1.000000  1.000000  1.000000  1.000000  1.000000
                       1.000000  1.000000  1.000000  1.000000  1.000000  1.000000
                       1.000000  1.000000  1.000000  1.000000  1.000000  1.000000
                       1.000000  1.000000  1.000000  1.000000  1.000000  1.000000
                       1.000000  1.000000  1.000000  1.000000  1.000000  1.000000
                       1.000000  1.000000  1.000000  1.000000  1.000000  1.000000
                       1.000000  1.000000  1.000000  1.000000  1.000000  1.000000
                       1.000000  0.000000  0.000000  0.000000  0.000000  0.000000
                       0.000000  0.000000  0.000000  0.000000  0.000000  0.000000
                       0.000000  0.000000  0.000000  0.000000  0.000000  0.000000
                       0.000000  0.000000  0.000000  0.000000  0.000000  0.000000
                       0.000000  0.000000  0.000000  0.000000  0.000000  0.000000
                       0.000000  0.000000  0.000000
                       1.000000  1.000000  1.000000  1.000000  1.000000  1.000000
                       1.000000  1.000000  1.000000  1.000000  1.000000  1.000000
                       1.000000  1.000000  1.000000  1.000000  1.000000  1.000000
                       1.000000  1.000000  1.000000  1.000000  1.000000  1.000000
                       1.000000  1.000000  1.000000  1.000000  1.000000  1.000000
                       1.000000  1.000000  1.000000  1.000000  1.000000  1.000000
                       1.000000  1.000000  1.000000  1.000000  1.000000  1.000000
                       1.000000  1.000000  1.000000  1.000000  1.000000  1.000000
                       1.000000  0.000000  0.000000  0.000000  0.000000  0.000000
                       0.000000  0.000000  0.000000  0.000000  0.000000  0.000000
                       0.000000  0.000000  0.000000  0.000000  0.000000  0.000000
                       0.000000  0.000000  0.000000  0.000000  0.000000  0.000000
                       0.000000  0.000000  0.000000  0.000000  0.000000  0.000000
                       0.000000  0.000000  0.000000
                       1.000000  1.000000  1.000000  1.000000  1.000000  1.000000
                       1.000000  1.000000  1.000000  1.000000  1.000000  1.000000
                       1.000000  1.000000  1.000000  1.000000  1.000000  1.000000
                       1.000000  1.000000  1.000000  1.000000  1.000000  1.000000
                       1.000000  1.000000  1.000000  1.000000  1.000000  1.000000
                       1.000000  1.000000  1.000000  1.000000  1.000000  1.000000
                       1.000000  1.000000  1.000000  1.000000  1.000000  1.000000
                       1.000000  1.000000  1.000000  1.000000  1.000000  1.000000
                       1.000000  0.000000  0.000000  0.000000  0.000000  0.000000
                       0.000000  0.000000  0.000000  0.000000  0.000000  0.000000
                       0.000000  0.000000  0.000000  0.000000  0.000000  0.000000
                       0.000000  0.000000  0.000000  0.000000  0.000000  0.000000
                       0.000000  0.000000  0.000000  0.000000  0.000000  0.000000
                       0.000000  0.000000  0.000000
           occopt           7
          optcell           2
        optforces           1
        pawecutdg      4.00000000E+01 Hartree
        ptgroupma          31
            rprim      5.7735026919E-01  0.0000000000E+00  8.2982624442E-01
                      -2.8867513459E-01  5.0000000000E-01  8.2982624442E-01
                      -2.8867513459E-01 -5.0000000000E-01  8.2982624442E-01
          spgroup         161
           spinat      0.0000000000E+00  0.0000000000E+00  0.0000000000E+00
                       0.0000000000E+00  0.0000000000E+00  0.0000000000E+00
                       0.0000000000E+00  0.0000000000E+00  9.0000000000E+00
                       0.0000000000E+00  0.0000000000E+00 -9.0000000000E+00
                       0.0000000000E+00  0.0000000000E+00  0.0000000000E+00
                       0.0000000000E+00  0.0000000000E+00  0.0000000000E+00
                       0.0000000000E+00  0.0000000000E+00  0.0000000000E+00
                       0.0000000000E+00  0.0000000000E+00  0.0000000000E+00
                       0.0000000000E+00  0.0000000000E+00  0.0000000000E+00
                       0.0000000000E+00  0.0000000000E+00  0.0000000000E+00
           symafm        1   -1    1   -1    1   -1
           symrel      1  0  0   0  1  0   0  0  1       0  1  0   1  0  0   0  0  1
                       0  0  1   1  0  0   0  1  0       1  0  0   0  0  1   0  1  0
                       0  1  0   0  0  1   1  0  0       0  0  1   0  1  0   1  0  0
            tnons      0.0000000  0.0000000  0.0000000     0.5000000  0.5000000  0.5000000
                       0.0000000  0.0000000 -0.0000000     0.5000000  0.5000000  0.5000000
                       0.0000000 -0.0000000  0.0000000     0.5000000  0.5000000  0.5000000
           toldff      5.00000000E-06
            typat      1  1  2  2  3  3  3  3  3  3
            upawu1     0.00000000E+00  0.00000000E+00  0.00000000E+00 Hartree
            upawu2     0.00000000E+00  3.67493254E-02  0.00000000E+00 Hartree
            upawu3     0.00000000E+00  7.34986508E-02  0.00000000E+00 Hartree
            upawu4     0.00000000E+00  1.10247976E-01  0.00000000E+00 Hartree
            upawu5     0.00000000E+00  1.46997302E-01  0.00000000E+00 Hartree
            upawu6     0.00000000E+00  1.83746627E-01  0.00000000E+00 Hartree
            upawu7     0.00000000E+00  2.20495952E-01  0.00000000E+00 Hartree
            upawu8     0.00000000E+00  2.57245278E-01  0.00000000E+00 Hartree
            upawu9     0.00000000E+00  2.93994603E-01  0.00000000E+00 Hartree
            upawu10    0.00000000E+00  3.30743929E-01  0.00000000E+00 Hartree
            upawu11    0.00000000E+00  3.67493254E-01  0.00000000E+00 Hartree
          usepawu           1
           useylm           1
              wtk        0.01563    0.09375    0.04688    0.09375    0.09375    0.09375
                         0.09375    0.04688    0.03125    0.09375    0.09375    0.09375
                         0.09375    0.01563
           xangst      0.0000000000E+00  0.0000000000E+00  0.0000000000E+00
                      -6.1902176981E-17 -7.5733432518E-17  6.9676898787E+00
                       8.0812195915E-17  3.9477454771E-17  3.0832027713E+00
                       1.5346235983E-16  7.9294568750E-17  1.0050892650E+01
                      -1.0595585208E+00 -1.1584460643E+00  8.6364051534E+00
                      -2.0893841198E+00  1.3020273233E+00  6.3138418605E+00
                      -8.2896678535E-02 -2.4604733877E+00  6.3138418605E+00
                       2.1722807983E+00  1.1584460643E+00  6.3138418605E+00
                      -4.7346446025E-01  1.4968276280E+00  8.6364051534E+00
                       1.5330229810E+00 -3.3838156361E-01  8.6364051534E+00
            xcart      0.0000000000E+00  0.0000000000E+00  0.0000000000E+00
                      -1.1697816152E-16 -1.4311544656E-16  1.3167025650E+01
                       1.5271291848E-16  7.4601577940E-17  5.8264088500E+00
                       2.9000183179E-16  1.4984501876E-16  1.8993434500E+01
                      -2.0022754260E+00 -2.1891458013E+00  1.6320440513E+01
                      -3.9483637728E+00  2.4604750586E+00  1.1931431963E+01
                      -1.5665201976E-01 -4.6496208600E+00  1.1931431963E+01
                       4.1050157926E+00  2.1891458013E+00  1.1931431963E+01
                      -8.9471816352E-01  2.8285942850E+00  1.6320440513E+01
                       2.8969935895E+00 -6.3944848364E-01  1.6320440513E+01
             xred      0.0000000000E+00  0.0000000000E+00  0.0000000000E+00
                       5.0000000000E-01  5.0000000000E-01  5.0000000000E-01
                       2.2125000000E-01  2.2125000000E-01  2.2125000000E-01
                       7.2125000000E-01  7.2125000000E-01  7.2125000000E-01
                       4.0118000000E-01  5.2208000000E-01  9.3598000000E-01
                       2.2080000000E-02  9.0118000000E-01  4.3598000000E-01
                       4.3598000000E-01  2.2080000000E-02  9.0118000000E-01
                       9.0118000000E-01  4.3598000000E-01  2.2080000000E-02
                       5.2208000000E-01  9.3598000000E-01  4.0118000000E-01
                       9.3598000000E-01  4.0118000000E-01  5.2208000000E-01
            znucl       83.00000   26.00000    8.00000
 
================================================================================
 
 chkinp: Checking input parameters for consistency, jdtset=   1.
 
 chkinp: Checking input parameters for consistency, jdtset=   2.
 
 chkinp: Checking input parameters for consistency, jdtset=   3.
 
 chkinp: Checking input parameters for consistency, jdtset=   4.
 
 chkinp: Checking input parameters for consistency, jdtset=   5.
 
 chkinp: Checking input parameters for consistency, jdtset=   6.
 
 chkinp: Checking input parameters for consistency, jdtset=   7.
 
 chkinp: Checking input parameters for consistency, jdtset=   8.
 
 chkinp: Checking input parameters for consistency, jdtset=   9.
 
 chkinp: Checking input parameters for consistency, jdtset=  10.
 
 chkinp: Checking input parameters for consistency, jdtset=  11.
 
================================================================================
== DATASET  1 ==================================================================
-   mpi_nproc: 64, omp_nthreads: -1 (-1 if OMP is not activated)
-    --> not optimal distribution: autoparal keyword recommended in input file <--
 

--- !DatasetInfo
iteration_state: {dtset: 1, }
dimensions: {natom: 10, nkpt: 14, mband: 81, nsppol: 2, nspinor: 1, nspden: 2, mpw: 4234, }
cutoff_energies: {ecut:  20.0, pawecutdg:  40.0, }
electrons: {nelect:   9.80000000E+01, charge:   0.00000000E+00, occopt:   7.00000000E+00, tsmear:   1.00000000E-02, }
meta: {optdriver: 0, ionmov: 22, optcell: 2, iscf: 17, paral_kgb: 0, }
...

 Real(R)+Recip(G) space primitive vectors, cartesian coordinates (Bohr,Bohr^-1):
 R(1)=  6.1072912  0.0000000  8.7780171  G(1)=  0.1091591  0.0000000  0.0379736
 R(2)= -3.0536456  5.2890693  8.7780171  G(2)= -0.0545796  0.0945346  0.0379736
 R(3)= -3.0536456 -5.2890693  8.7780171  G(3)= -0.0545796 -0.0945346  0.0379736
 Unit cell volume ucvol=  8.5063954E+02 bohr^3
 Angles (23,13,12)=  5.92870769E+01  5.92870769E+01  5.92870769E+01 degrees
 
 Coarse grid specifications (used for wave-functions):
 
 getcut: wavevector=  0.0000  0.0000  0.0000  ngfft=  48  48  48
         ecut(hartree)=     22.050   => boxcut(ratio)=   2.12373
 
 Fine grid specifications (used for densities):
 
 getcut: wavevector=  0.0000  0.0000  0.0000  ngfft=  64  64  64
         ecut(hartree)=     44.100   => boxcut(ratio)=   2.00227
 
--- Pseudopotential description ------------------------------------------------
- pspini: atom type   1  psp file is Bi.LDA_PW-JTH.xml
- pspatm: opening atomic psp file    Bi.LDA_PW-JTH.xml
- pspatm : Reading pseudopotential header in XML form from Bi.LDA_PW-JTH.xml
 Pseudopotential format is: paw10
 basis_size (lnmax)=  6 (lmn_size= 18), orbitals=   0   0   1   1   2   2
 Spheres core radius: rc_sph= 2.41545090
 1 radial meshes are used:
  - mesh 1: r(i)=AA*[exp(BB*(i-1))-1], size=2037 , AA= 0.82900E-04 BB= 0.68807E-02
 Shapefunction is BESSEL type: shapef(r,l)=aa(1,l)*jl(q(1,l)*r)+aa(2,l)*jl(q(2,l)*r)
 Radius for shape functions =  2.20876477
 mmax= 2037
 Radial grid used for partial waves is grid 1
 Radial grid used for projectors is grid 1
 Radial grid used for (t)core density is grid 1
 Radial grid used for Vloc is grid 1
 Radial grid used for pseudo valence density is grid 1
 Mesh size for Vloc has been set to 1802 to avoid numerical noise.
 Compensation charge density is not taken into account in XC energy/potential
 pspatm: atomic psp has been read  and splines computed
 
- pspini: atom type   2  psp file is Fe.LDA_PW-JTH.xml
- pspatm: opening atomic psp file    Fe.LDA_PW-JTH.xml
- pspatm : Reading pseudopotential header in XML form from Fe.LDA_PW-JTH.xml
 Pseudopotential format is: paw10
 basis_size (lnmax)=  6 (lmn_size= 18), orbitals=   0   0   1   1   2   2
 Spheres core radius: rc_sph= 2.11531574
 1 radial meshes are used:
  - mesh 1: r(i)=AA*[exp(BB*(i-1))-1], size=1500 , AA= 0.31899E-03 BB= 0.82938E-02
 Shapefunction is SIN type: shapef(r)=[sin(pi*r/rshp)/(pi*r/rshp)]**2
 Radius for shape functions =  1.80687083
 mmax= 1500
 Radial grid used for partial waves is grid 1
 Radial grid used for projectors is grid 1
 Radial grid used for (t)core density is grid 1
 Radial grid used for Vloc is grid 1
 Radial grid used for pseudo valence density is grid 1
 Mesh size for Vloc has been set to 1332 to avoid numerical noise.
 Compensation charge density is not taken into account in XC energy/potential
 pspatm: atomic psp has been read  and splines computed
 
- pspini: atom type   3  psp file is O.LDA_PW-JTH.xml
- pspatm: opening atomic psp file    O.LDA_PW-JTH.xml
- pspatm : Reading pseudopotential header in XML form from O.LDA_PW-JTH.xml
 Pseudopotential format is: paw10
 basis_size (lnmax)=  4 (lmn_size=  8), orbitals=   0   0   1   1
 Spheres core radius: rc_sph= 1.41465230
 1 radial meshes are used:
  - mesh 1: r(i)=AA*[exp(BB*(i-1))-1], size=2001 , AA= 0.72565E-03 BB= 0.58052E-02
 Shapefunction is SIN type: shapef(r)=[sin(pi*r/rshp)/(pi*r/rshp)]**2
 Radius for shape functions =  1.20231231
 mmax= 2001
 Radial grid used for partial waves is grid 1
 Radial grid used for projectors is grid 1
 Radial grid used for (t)core density is grid 1
 Radial grid used for Vloc is grid 1
 Radial grid used for pseudo valence density is grid 1
 Mesh size for Vloc has been set to 1762 to avoid numerical noise.
 Compensation charge density is not taken into account in XC energy/potential
 pspatm: atomic psp has been read  and splines computed
 
   1.38099947E+04                                ecore*ucvol(ha*bohr**3)
--------------------------------------------------------------------------------
 
_setup2: Arith. and geom. avg. npw (full set) are    4208.109    4208.099
 
 
 ******************************************
 DFT+U Method used: FLL
 ******************************************
 
================================================================================
 
=== [ionmov=22] Limited-memory Broyden-Fletcher-Goldfard-Shanno method      
================================================================================
 
--- Iteration: ( 1/30) Internal Cycle: (1/1)
--------------------------------------------------------------------------------
 
---SELF-CONSISTENT-FIELD CONVERGENCE--------------------------------------------

--- !BeginCycle
iteration_state: {dtset: 1, itime: 1, icycle: 1, }
solver: {iscf: 17, nstep: 100, nline: 4, wfoptalg: 10, }
tolerances: {toldff: 5.00E-06, }
...
 
     iter   Etot(hartree)     deltaE(h) residm    nres2   diffor   maxfor   magn
 ETOT  1  -471.09279007791    -4.71E+02 1.80E+01 2.25E+03 1.1E+00 1.11E+00 0.422
 ETOT  2  -501.02581292356    -2.99E+01 9.01E-01 4.29E+03 1.8E+00 7.36E-01 0.398
 ETOT  3  -490.93764913872     1.01E+01 1.79E+00 4.31E+02 5.9E+00 6.22E+00 0.000
 ETOT  4  -491.20408545534    -2.66E-01 3.77E-01 1.40E+03 6.1E+00 3.33E-01 0.173
 ETOT  5  -490.70347310461     5.01E-01 2.15E-01 8.07E+01 3.9E-01 5.68E-02 0.033
 ETOT  6  -490.70534308300    -1.87E-03 3.75E-02 1.78E+02 7.7E-02 2.11E-02 0.049
 ETOT  7  -490.66851930993     3.68E-02 3.37E-02 2.92E+01 9.0E-03 1.43E-02 0.042
 ETOT  8  -490.70853094289    -4.00E-02 1.22E-02 3.25E+01 3.4E-02 4.74E-02 0.108
 ETOT  9  -490.70058930526     7.94E-03 8.52E-03 3.44E+00 3.1E-02 1.64E-02 0.020
 ETOT 10  -490.70494467573    -4.36E-03 3.42E-03 1.10E+01 3.1E-02 1.69E-02 0.019
 ETOT 11  -490.70525243027    -3.08E-04 4.27E-03 1.89E+00 5.8E-03 1.47E-02 0.016
 ETOT 12  -490.70831509370    -3.06E-03 2.30E-03 1.30E+00 2.0E-03 1.60E-02 0.011
 ETOT 13  -490.70801261718     3.02E-04 2.16E-03 8.17E-01 6.4E-03 9.56E-03 0.011
 ETOT 14  -490.70802937933    -1.68E-05 1.86E-03 1.68E-01 2.2E-03 9.76E-03 0.005
 ETOT 15  -490.70804183483    -1.25E-05 2.04E-03 1.53E-02 6.2E-04 9.42E-03 0.001
 ETOT 16  -490.70808016506    -3.83E-05 1.54E-03 6.93E-03 4.8E-04 9.50E-03 0.001
 ETOT 17  -490.70809645550    -1.63E-05 1.24E-03 4.74E-03 3.2E-04 9.30E-03 0.001
 ETOT 18  -490.70809725616    -8.01E-07 1.28E-03 4.41E-04 3.1E-04 9.61E-03 0.000
 ETOT 19  -490.70809991215    -2.66E-06 6.26E-04 1.10E-04 1.6E-04 9.53E-03 0.000
 ETOT 20  -490.70810082587    -9.14E-07 7.93E-04 6.40E-05 1.8E-04 9.35E-03 0.000
 ETOT 21  -490.70810084216    -1.63E-08 3.51E-04 2.31E-05 5.0E-05 9.30E-03 0.000
 ETOT 22  -490.70810090545    -6.33E-08 4.14E-04 1.00E-05 5.0E-05 9.35E-03 0.000
 ETOT 23  -490.70810093112    -2.57E-08 1.74E-04 3.01E-05 3.1E-05 9.32E-03 0.000
 ETOT 24  -490.70810091976     1.14E-08 1.98E-04 3.14E-07 1.1E-05 9.33E-03 0.000
 ETOT 25  -490.70810092901    -9.25E-09 1.49E-04 4.63E-07 5.5E-06 9.33E-03 0.000
 ETOT 26  -490.70810092996    -9.51E-10 1.23E-04 2.07E-07 7.1E-06 9.34E-03 0.000
 ETOT 27  -490.70810092998    -1.72E-11 1.55E-04 4.46E-08 1.4E-06 9.34E-03 0.000
 ETOT 28  -490.70810093004    -5.84E-11 1.29E-04 7.33E-09 2.0E-06 9.34E-03 0.000
 
 At SCF step   28, forces are converged : 
  for the second time, max diff in force=  1.985E-06 < toldff=  5.000E-06
 
 Cartesian components of stress tensor (hartree/bohr^3)
  sigma(1 1)=  3.63023113E-04  sigma(3 2)=  0.00000000E+00
  sigma(2 2)=  3.63023113E-04  sigma(3 1)=  0.00000000E+00
  sigma(3 3)=  3.43347975E-04  sigma(2 1)=  0.00000000E+00
 

--- !ResultsGS
iteration_state: {dtset: 1, itime: 1, icycle: 1, }
comment   : Summary of ground state results
lattice_vectors:
- [  6.1072912,   0.0000000,   8.7780171, ]
- [ -3.0536456,   5.2890693,   8.7780171, ]
- [ -3.0536456,  -5.2890693,   8.7780171, ]
lattice_lengths: [  10.69358,   10.69358,   10.69358, ]
lattice_angles: [ 59.287,  59.287,  59.287, ] # degrees, (23, 13, 12)
lattice_volume:   8.5063954E+02
convergence: {deltae: -5.838E-11, res2:  7.326E-09, residm:  1.290E-04, diffor:  1.985E-06, }
etotal    :  -4.90708101E+02
entropy   :   0.00000000E+00
fermie    :   2.59112063E-01
cartesian_stress_tensor: # hartree/bohr^3
- [  3.63023113E-04,   0.00000000E+00,   0.00000000E+00, ]
- [  0.00000000E+00,   3.63023113E-04,   0.00000000E+00, ]
- [  0.00000000E+00,   0.00000000E+00,   3.43347975E-04, ]
pressure_GPa:  -1.0488E+01
xred      :
- [  0.0000E+00,   0.0000E+00,   0.0000E+00, Bi]
- [  5.0000E-01,   5.0000E-01,   5.0000E-01, Bi]
- [  2.2125E-01,   2.2125E-01,   2.2125E-01, Fe]
- [  7.2125E-01,   7.2125E-01,   7.2125E-01, Fe]
- [  4.0118E-01,   5.2208E-01,   9.3598E-01,  O]
- [  2.2080E-02,   9.0118E-01,   4.3598E-01,  O]
- [  4.3598E-01,   2.2080E-02,   9.0118E-01,  O]
- [  9.0118E-01,   4.3598E-01,   2.2080E-02,  O]
- [  5.2208E-01,   9.3598E-01,   4.0118E-01,  O]
- [  9.3598E-01,   4.0118E-01,   5.2208E-01,  O]
cartesian_forces: # hartree/bohr
- [  1.72276637E-19,  -3.35288922E-19,   9.33905690E-03, ]
- [  9.29720339E-19,  -1.64721990E-18,   9.33905690E-03, ]
- [ -1.54114548E-18,   2.64260336E-18,   7.22326581E-03, ]
- [  4.07422793E-19,  -8.48620327E-19,   7.22326581E-03, ]
- [ -2.32260724E-03,   1.01386121E-03,  -5.52077424E-03, ]
- [  2.03933318E-03,  -1.50450627E-03,  -5.52077424E-03, ]
- [  2.83274061E-04,   2.51836748E-03,  -5.52077424E-03, ]
- [ -2.32260724E-03,  -1.01386121E-03,  -5.52077424E-03, ]
- [  2.03933318E-03,   1.50450627E-03,  -5.52077424E-03, ]
- [  2.83274061E-04,  -2.51836748E-03,  -5.52077424E-03, ]
force_length_stats: {min:   6.07464955E-03, max:   9.33905690E-03, mean:   6.95725427E-03, }
...

 Integrated electronic and magnetization densities in atomic spheres:
 ---------------------------------------------------------------------
 Radius=ratsph(iatom), smearing ratsm=  0.0000. Diff(up-dn)=approximate z local magnetic moment.
 Atom    Radius    up_density   dn_density  Total(up+dn)  Diff(up-dn)
    1   2.41545     6.011073     6.013869     12.024941    -0.002796
    2   2.41545     6.013868     6.011073     12.024940     0.002795
    3   2.11532     8.873150     5.295063     14.168213     3.578087
    4   2.11532     5.295069     8.873153     14.168222    -3.578084
    5   1.41465     2.277619     2.217833      4.495452     0.059786
    6   1.41465     2.217831     2.277618      4.495449    -0.059787
    7   1.41465     2.217831     2.277618      4.495449    -0.059787
    8   1.41465     2.217831     2.277618      4.495449    -0.059787
    9   1.41465     2.277619     2.217833      4.495452     0.059786
   10   1.41465     2.277619     2.217833      4.495452     0.059786
 ---------------------------------------------------------------------
  Sum:             39.679512    39.679511     79.359023     0.000000
 Total magnetization (from the atomic spheres):             0.000000
 Total magnetization (exact up - dn):                       0.000001
 
 PAW TEST:
 ==== Compensation charge inside spheres ============
 The following values must be close to each other ...
 Compensation charge over spherical meshes =     37.142480160587382
 Compensation charge over fine fft grid    =     37.142461921620956
 
 ==== Results concerning PAW augmentation regions ====
 
 Total pseudopotential strength Dij (hartree):
 Atom #  1 - Spin component 1
   0.39831  -1.56654   0.00000  -0.00010   0.00000   0.00000  -0.00020   0.00000   0.00000   0.00000   0.00042   0.00000 ...
  -1.56654   6.11140   0.00000  -0.00036   0.00000   0.00000   0.00647   0.00000   0.00000   0.00000  -0.00098   0.00000 ...
   0.00000   0.00000   0.23197   0.00000   0.00000  -1.82601   0.00000   0.00000  -0.00005   0.00008   0.00000   0.00000 ...
  -0.00010  -0.00036   0.00000   0.23205   0.00000   0.00000  -1.82632   0.00000   0.00000   0.00000   0.00007   0.00000 ...
   0.00000   0.00000   0.00000   0.00000   0.23197   0.00000   0.00000  -1.82601  -0.00003   0.00000   0.00000   0.00008 ...
   0.00000   0.00000  -1.82601   0.00000   0.00000  13.93801   0.00000   0.00000   0.00038   0.00091   0.00000   0.00000 ...
  -0.00020   0.00647   0.00000  -1.82632   0.00000   0.00000  13.93890   0.00000   0.00000   0.00000   0.00124   0.00000 ...
   0.00000   0.00000   0.00000   0.00000  -1.82601   0.00000   0.00000  13.93801   0.00021   0.00000   0.00000   0.00091 ...
   0.00000   0.00000  -0.00005   0.00000  -0.00003   0.00038   0.00000   0.00021  -0.66735  -0.00030   0.00000   0.00052 ...
   0.00000   0.00000   0.00008   0.00000   0.00000   0.00091   0.00000   0.00000  -0.00030  -0.66560   0.00000   0.00000 ...
   0.00042  -0.00098   0.00000   0.00007   0.00000   0.00000   0.00124   0.00000   0.00000   0.00000  -0.66594   0.00000 ...
   0.00000   0.00000   0.00000   0.00000   0.00008   0.00000   0.00000   0.00091   0.00052   0.00000   0.00000  -0.66560 ...
   ...  only 12  components have been written...
 Atom #  1 - Spin component 2
   0.39832  -1.56656   0.00000  -0.00013   0.00000   0.00000   0.00007   0.00000   0.00000   0.00000   0.00042   0.00000 ...
  -1.56656   6.11147   0.00000  -0.00027   0.00000   0.00000   0.00562   0.00000   0.00000   0.00000  -0.00098   0.00000 ...
   0.00000   0.00000   0.23197   0.00000   0.00000  -1.82601   0.00000   0.00000  -0.00004   0.00009   0.00000   0.00000 ...
  -0.00013  -0.00027   0.00000   0.23206   0.00000   0.00000  -1.82642   0.00000   0.00000   0.00000   0.00007   0.00000 ...
   0.00000   0.00000   0.00000   0.00000   0.23197   0.00000   0.00000  -1.82601  -0.00003   0.00000   0.00000   0.00009 ...
   0.00000   0.00000  -1.82601   0.00000   0.00000  13.93797   0.00000   0.00000   0.00037   0.00093   0.00000   0.00000 ...
   0.00007   0.00562   0.00000  -1.82642   0.00000   0.00000  13.93966   0.00000   0.00000   0.00000   0.00127   0.00000 ...
   0.00000   0.00000   0.00000   0.00000  -1.82601   0.00000   0.00000  13.93797   0.00020   0.00000   0.00000   0.00093 ...
   0.00000   0.00000  -0.00004   0.00000  -0.00003   0.00037   0.00000   0.00020  -0.66734  -0.00030   0.00000   0.00052 ...
   0.00000   0.00000   0.00009   0.00000   0.00000   0.00093   0.00000   0.00000  -0.00030  -0.66561   0.00000   0.00000 ...
   0.00042  -0.00098   0.00000   0.00007   0.00000   0.00000   0.00127   0.00000   0.00000   0.00000  -0.66595   0.00000 ...
   0.00000   0.00000   0.00000   0.00000   0.00009   0.00000   0.00000   0.00093   0.00052   0.00000   0.00000  -0.66561 ...
   ...  only 12  components have been written...
 Atom # 10 - Spin component 1
   0.59608  -1.74849  -0.00006   0.00048  -0.00001   0.00040  -0.00320   0.00011
  -1.74849   5.19323   0.00016  -0.00131   0.00001  -0.00111   0.00896  -0.00019
  -0.00006   0.00016  -0.29995   0.00015   0.00003   0.86717  -0.00079  -0.00016
   0.00048  -0.00131   0.00015  -0.30041   0.00010  -0.00079   0.86959  -0.00051
  -0.00001   0.00001   0.00003   0.00010  -0.30044  -0.00016  -0.00051   0.86976
   0.00040  -0.00111   0.86717  -0.00079  -0.00016   0.15410   0.00393   0.00083
  -0.00320   0.00896  -0.00079   0.86959  -0.00051   0.00393   0.14198   0.00247
   0.00011  -0.00019  -0.00016  -0.00051   0.86976   0.00083   0.00247   0.14127
 Atom # 10 - Spin component 2
   0.59634  -1.74908  -0.00003   0.00032   0.00022   0.00023  -0.00214  -0.00149
  -1.74908   5.19449   0.00010  -0.00091  -0.00060  -0.00065   0.00610   0.00411
  -0.00003   0.00010  -0.29808   0.00020   0.00010   0.85802  -0.00101  -0.00052
   0.00032  -0.00091   0.00020  -0.29871   0.00023  -0.00101   0.86130  -0.00118
   0.00022  -0.00060   0.00010   0.00023  -0.29921  -0.00052  -0.00118   0.86375
   0.00023  -0.00065   0.85802  -0.00101  -0.00052   0.19870   0.00500   0.00262
  -0.00214   0.00610  -0.00101   0.86130  -0.00118   0.00500   0.18242   0.00570
  -0.00149   0.00411  -0.00052  -0.00118   0.86375   0.00262   0.00570   0.17057
 
 
 Augmentation waves occupancies Rhoij:
 Atom #  1 - Spin component 1
   1.04392  -0.01041   0.00000  -0.10158   0.00000   0.00000  -0.00078   0.00000   0.00000   0.00000  -0.00116   0.00000 ...
  -0.01041   0.00096   0.00000   0.00968   0.00000   0.00000   0.00010   0.00000   0.00000   0.00000   0.00081   0.00000 ...
   0.00000   0.00000   0.31632   0.00000   0.00000   0.00286   0.00000   0.00000   0.00428  -0.01238   0.00000  -0.00044 ...
  -0.10158   0.00968   0.00000   0.37723   0.00000   0.00000   0.00345   0.00000   0.00000   0.00000  -0.01379   0.00000 ...
   0.00000   0.00000   0.00000   0.00000   0.31632  -0.00000   0.00000   0.00286   0.00277   0.00044   0.00000  -0.01238 ...
   0.00000   0.00000   0.00286   0.00000  -0.00000   0.00004   0.00000   0.00000  -0.00008  -0.00103   0.00000  -0.00000 ...
  -0.00078   0.00010   0.00000   0.00345   0.00000   0.00000   0.00005   0.00000   0.00000   0.00000  -0.00122   0.00000 ...
   0.00000   0.00000   0.00000   0.00000   0.00286   0.00000   0.00000   0.00004  -0.00004   0.00000   0.00000  -0.00103 ...
   0.00000   0.00000   0.00428   0.00000   0.00277  -0.00008   0.00000  -0.00004   1.00048  -0.00013   0.00000   0.00036 ...
   0.00000   0.00000  -0.01238   0.00000   0.00044  -0.00103   0.00000   0.00000  -0.00013   1.00067   0.00000   0.00000 ...
  -0.00116   0.00081   0.00000  -0.01379   0.00000   0.00000  -0.00122   0.00000   0.00000   0.00000   1.00022   0.00000 ...
   0.00000   0.00000  -0.00044   0.00000  -0.01238  -0.00000   0.00000  -0.00103   0.00036   0.00000   0.00000   1.00067 ...
   ...  only 12  components have been written...
 Atom #  1 - Spin component 2
   1.04264  -0.01026   0.00000  -0.10847   0.00000   0.00000  -0.00078   0.00000   0.00000   0.00000  -0.00088   0.00000 ...
  -0.01026   0.00095   0.00000   0.01027   0.00000   0.00000   0.00010   0.00000   0.00000   0.00000   0.00080   0.00000 ...
   0.00000   0.00000   0.31567   0.00000   0.00000   0.00285   0.00000  -0.00000   0.00414  -0.01294   0.00000  -0.00018 ...
  -0.10847   0.01027   0.00000   0.38975   0.00000   0.00000   0.00348   0.00000   0.00000   0.00000  -0.01436   0.00000 ...
   0.00000   0.00000   0.00000   0.00000   0.31567   0.00000   0.00000   0.00285   0.00263   0.00018   0.00000  -0.01294 ...
   0.00000   0.00000   0.00285   0.00000   0.00000   0.00004   0.00000   0.00000  -0.00007  -0.00102   0.00000  -0.00000 ...
  -0.00078   0.00010   0.00000   0.00348   0.00000   0.00000   0.00005   0.00000   0.00000   0.00000  -0.00122   0.00000 ...
   0.00000   0.00000  -0.00000   0.00000   0.00285   0.00000   0.00000   0.00004  -0.00004   0.00000   0.00000  -0.00102 ...
   0.00000   0.00000   0.00414   0.00000   0.00263  -0.00007   0.00000  -0.00004   1.00047  -0.00015   0.00000   0.00036 ...
   0.00000   0.00000  -0.01294   0.00000   0.00018  -0.00102   0.00000   0.00000  -0.00015   1.00069   0.00000   0.00000 ...
  -0.00088   0.00080   0.00000  -0.01436   0.00000   0.00000  -0.00122   0.00000   0.00000   0.00000   1.00022   0.00000 ...
   0.00000   0.00000  -0.00018   0.00000  -0.01294  -0.00000   0.00000  -0.00102   0.00036   0.00000   0.00000   1.00069 ...
   ...  only 12  components have been written...
 Atom # 10 - Spin component 1
   0.99079   0.01109   0.00213  -0.00223   0.01144   0.00019  -0.00042  -0.00026
   0.01109   0.00059   0.00018  -0.00111  -0.00220   0.00000  -0.00010  -0.00002
   0.00213   0.00018   0.87464   0.00527   0.00609   0.01269  -0.00046  -0.00010
  -0.00223  -0.00111   0.00527   0.85670  -0.00360  -0.00047   0.01473  -0.00128
   0.01144  -0.00220   0.00609  -0.00360   0.85444  -0.00010  -0.00125   0.01624
   0.00019   0.00000   0.01269  -0.00047  -0.00010   0.00027  -0.00003  -0.00000
  -0.00042  -0.00010  -0.00046   0.01473  -0.00125  -0.00003   0.00035  -0.00004
  -0.00026  -0.00002  -0.00010  -0.00128   0.01624  -0.00000  -0.00004   0.00043
 Atom # 10 - Spin component 2
   0.99060   0.01157   0.00024   0.00855  -0.00536   0.00025  -0.00087   0.00043
   0.01157   0.00058   0.00056  -0.00352   0.00142   0.00000  -0.00007  -0.00006
   0.00024   0.00056   0.83657   0.00193   0.00441   0.01336  -0.00056   0.00010
   0.00855  -0.00352   0.00193   0.82510  -0.00958  -0.00056   0.01515  -0.00118
  -0.00536   0.00142   0.00441  -0.00958   0.84781   0.00010  -0.00120   0.01684
   0.00025   0.00000   0.01336  -0.00056   0.00010   0.00028  -0.00003  -0.00001
  -0.00087  -0.00007  -0.00056   0.01515  -0.00120  -0.00003   0.00037  -0.00004
   0.00043  -0.00006   0.00010  -0.00118   0.01684  -0.00001  -0.00004   0.00042
 
 "PAW+U" part of augmentation waves occupancies Rhoij:
 Atom #  3 - L=2 ONLY - Spin component 1
   1.01087  -0.01651   0.00000   0.01018   0.00000  -0.06342  -0.00216   0.00000   0.00112   0.00001
  -0.01651   1.00184   0.00000   0.00000   0.01018  -0.00218  -0.06507   0.00000   0.00001   0.00114
   0.00000   0.00000   1.02497   0.00000   0.00000   0.00000   0.00000  -0.05998   0.00000   0.00000
   0.01018   0.00000   0.00000   1.00184   0.01651   0.00114  -0.00001   0.00000  -0.06507   0.00218
   0.00000   0.01018   0.00000   0.01651   1.01087  -0.00001   0.00112   0.00000   0.00216  -0.06342
  -0.06342  -0.00218   0.00000   0.00114  -0.00001   0.01380   0.00574   0.00000  -0.00373   0.00000
  -0.00216  -0.06507   0.00000  -0.00001   0.00112   0.00574   0.01690   0.00000   0.00000  -0.00373
   0.00000   0.00000  -0.05998   0.00000   0.00000   0.00000   0.00000   0.00821   0.00000   0.00000
   0.00112   0.00001   0.00000  -0.06507   0.00216  -0.00373   0.00000   0.00000   0.01690  -0.00574
   0.00001   0.00114   0.00000   0.00218  -0.06342   0.00000  -0.00373   0.00000  -0.00574   0.01380
 Atom #  3 - L=2 ONLY - Spin component 2
   0.23931   0.04538   0.00000  -0.05141   0.00000   0.02861   0.01068   0.00000  -0.00676  -0.00001
   0.04538   0.26331   0.00000   0.00000  -0.05141   0.01073   0.03401   0.00000  -0.00001  -0.00681
   0.00000   0.00000   0.21314   0.00000   0.00000   0.00000   0.00000   0.01814   0.00000   0.00000
  -0.05141   0.00000   0.00000   0.26331  -0.04538  -0.00681   0.00001   0.00000   0.03401  -0.01073
   0.00000  -0.05141   0.00000  -0.04538   0.23931   0.00001  -0.00676   0.00000  -0.01068   0.02861
   0.02861   0.01073   0.00000  -0.00681   0.00001   0.00537   0.00264   0.00000  -0.00181   0.00000
   0.01068   0.03401   0.00000   0.00001  -0.00676   0.00264   0.00669   0.00000   0.00000  -0.00181
   0.00000   0.00000   0.01814   0.00000   0.00000   0.00000   0.00000   0.00291   0.00000   0.00000
  -0.00676  -0.00001   0.00000   0.03401  -0.01068  -0.00181   0.00000   0.00000   0.00669  -0.00264
  -0.00001  -0.00681   0.00000  -0.01073   0.02861   0.00000  -0.00181   0.00000  -0.00264   0.00537
 Atom #  4 - L=2 ONLY - Spin component 1
   0.23931   0.04538   0.00000   0.05141   0.00000   0.02861   0.01068   0.00000   0.00676   0.00001
   0.04538   0.26331   0.00000   0.00000   0.05141   0.01073   0.03401   0.00000   0.00001   0.00681
   0.00000   0.00000   0.21314   0.00000   0.00000   0.00000   0.00000   0.01814   0.00000   0.00000
   0.05141   0.00000   0.00000   0.26331  -0.04538   0.00681  -0.00001   0.00000   0.03401  -0.01073
   0.00000   0.05141   0.00000  -0.04538   0.23931  -0.00001   0.00676   0.00000  -0.01068   0.02861
   0.02861   0.01073   0.00000   0.00681  -0.00001   0.00537   0.00264   0.00000   0.00181   0.00000
   0.01068   0.03401   0.00000  -0.00001   0.00676   0.00264   0.00669   0.00000   0.00000   0.00181
[...]
                       1.1913418096E-16  2.3655802801E-16  5.6859025306E+00
                       2.5755853232E-16  8.4710232392E-16  1.8491454818E+01
                      -2.0714064898E+00 -2.0827660198E+00  1.5900190829E+01
                      -3.7705724669E+00  2.3652910467E+00  1.1631673400E+01
                      -1.6311590032E-01 -4.4480570665E+00  1.1631673400E+01
                       3.9336883672E+00  2.0827660198E+00  1.1631673400E+01
                      -7.6802503842E-01  2.8352736516E+00  1.5900190829E+01
                       2.8394315282E+00 -7.5250763179E-01  1.5900190829E+01
            xcart5     4.9408306421E-18  3.0837340344E-18 -1.0134999598E-01
                      -8.1692632013E-16 -3.9733005813E-16  1.2724209338E+01
                      -1.6997824707E-16 -1.0493457716E-16  5.6810248647E+00
                      -1.0862607626E-15 -5.3820483635E-16  1.8506584198E+01
                      -2.0709181566E+00 -2.0839076109E+00  1.5929073669E+01
                      -3.7734434401E+00  2.3679805360E+00  1.1653887225E+01
                      -1.6400957977E-01 -4.4518881468E+00  1.1653887225E+01
                       3.9374530199E+00  2.0839076109E+00  1.1653887225E+01
                      -7.6925785184E-01  2.8354215382E+00  1.5929073669E+01
                       2.8401760085E+00 -7.5151392736E-01  1.5929073669E+01
            xcart6    -1.3889585592E-17  1.9094634515E-17 -1.0147729169E-01
                       2.4073566802E-16 -3.6766218130E-16  1.2738892623E+01
                       3.9908576996E-16 -1.0736019360E-16  5.6758137443E+00
                       5.6592962592E-16 -4.0422763079E-17  1.8516183659E+01
                      -2.0705069053E+00 -2.0845962770E+00  1.5951395318E+01
                      -3.7756515899E+00  2.3704278315E+00  1.1671272013E+01
                      -1.6502492490E-01 -4.4550241085E+00  1.1671272013E+01
                       3.9406765148E+00  2.0845962770E+00  1.1671272013E+01
                      -7.7005987986E-01  2.8354097172E+00  1.5951395318E+01
                       2.8405667852E+00 -7.5081344022E-01  1.5951395318E+01
            xcart7     1.3206159824E-17 -1.6023755728E-17 -1.0175220634E-01
                      -2.3262311252E-16 -3.3321444897E-16  1.2750777498E+01
                       5.9161337098E-17 -2.6228764268E-16  5.6719717920E+00
                      -2.5065128750E-17 -7.6301636186E-16  1.8524501497E+01
                      -2.0702053721E+00 -2.0851053088E+00  1.5969633155E+01
                      -3.7775671292E+00  2.3727275793E+00  1.1685456587E+01
                      -1.6605879533E-01 -4.4578328881E+00  1.1685456587E+01
                       3.9436259245E+00  2.0851053088E+00  1.1685456587E+01
                      -7.7065148089E-01  2.8354030977E+00  1.5969633155E+01
                       2.8408568530E+00 -7.5029778893E-01  1.5969633155E+01
            xcart8    -1.5263438616E-17 -1.3873497959E-17 -1.0162139104E-01
                       6.7914872806E-16 -6.4198076608E-16  1.2762762853E+01
                       4.6978957180E-16 -2.4564675981E-16  5.6694085592E+00
                       1.0817651066E-15 -7.1023793869E-16  1.8533792803E+01
                      -2.0700049048E+00 -2.0855678225E+00  1.5986886127E+01
                      -3.7792759840E+00  2.3747623751E+00  1.1698758046E+01
                      -1.6696655277E-01 -4.4603301976E+00  1.1698758046E+01
                       3.9462425368E+00  2.0855678225E+00  1.1698758046E+01
                      -7.7115226320E-01  2.8354607448E+00  1.5986886127E+01
                       2.8411571680E+00 -7.4989292229E-01  1.5986886127E+01
            xcart9     1.0915186809E-17 -7.5938764118E-18 -1.0081176840E-01
                      -3.6892835494E-16  7.6527520544E-18  1.2776841060E+01
                       1.0002010360E-16  2.8147340187E-17  5.6687838507E+00
                      -6.7024375679E-17  1.8290702481E-16  1.8546436679E+01
                      -2.0700564369E+00 -2.0856276793E+00  1.6005227928E+01
                      -3.7803841531E+00  2.3765620667E+00  1.1712676985E+01
                      -1.6797104693E-01 -4.4621897460E+00  1.1712676985E+01
                       3.9483552000E+00  2.0856276793E+00  1.1712676985E+01
                      -7.7117833462E-01  2.8355353013E+00  1.6005227928E+01
                       2.8412347715E+00 -7.4990762201E-01  1.6005227928E+01
            xcart10    3.0028744414E-17 -9.0630828132E-18 -9.9632814163E-02
                      -1.6969986775E-16 -1.9333363333E-16  1.2789461174E+01
                       2.1927220709E-16 -4.8780225948E-17  5.6684480773E+00
                       2.4788997004E-16  1.6333512583E-16  1.8557542065E+01
                      -2.0701994133E+00 -2.0855319762E+00  1.6020815680E+01
                      -3.7813784893E+00  2.3784757137E+00  1.1724451017E+01
                      -1.6913114573E-01 -4.4640076899E+00  1.1724451017E+01
                       3.9505096350E+00  2.0855319762E+00  1.1724451017E+01
                      -7.7102396513E-01  2.8356112709E+00  1.6020815680E+01
                       2.8412233784E+00 -7.5007929471E-01  1.6020815680E+01
            xcart11   -1.4400889434E-17  4.9721149168E-18 -9.8679732119E-02
                       2.5780130971E-16  2.0166021198E-16  1.2801756018E+01
                       2.2609463006E-16 -9.6707477732E-17  5.6687359364E+00
                       2.8223754723E-16 -2.9213428979E-17  1.8569171686E+01
                      -2.0707795153E+00 -2.0854771271E+00  1.6036132981E+01
                      -3.7820672970E+00  2.3797784618E+00  1.1735987731E+01
                      -1.6991495483E-01 -4.4652555889E+00  1.1735987731E+01
                       3.9519822518E+00  2.0854771271E+00  1.1735987731E+01
                      -7.7068641339E-01  2.8360862295E+00  1.6036132981E+01
                       2.8414659287E+00 -7.5060910238E-01  1.6036132981E+01
             xred1    -6.0279072957E-03 -6.0279072957E-03 -6.0279072957E-03
                       4.9397209270E-01  4.9397209270E-01  4.9397209270E-01
                       2.2397105333E-01  2.2397105333E-01  2.2397105333E-01
                       7.2397105333E-01  7.2397105333E-01  7.2397105333E-01
                       3.9172883634E-01  5.3475676732E-01  9.3606125031E-01
                       3.4756767316E-02  8.9172883634E-01  4.3606125031E-01
                       4.3606125031E-01  3.4756767316E-02  8.9172883634E-01
                       8.9172883634E-01  4.3606125031E-01  3.4756767316E-02
                       5.3475676732E-01  9.3606125031E-01  3.9172883634E-01
                       9.3606125031E-01  3.9172883634E-01  5.3475676732E-01
             xred2    -4.6642089156E-03 -4.6642089156E-03 -4.6642089156E-03
                       4.9533579108E-01  4.9533579108E-01  4.9533579108E-01
                       2.2337336195E-01  2.2337336195E-01  2.2337336195E-01
                       7.2337336195E-01  7.2337336195E-01  7.2337336195E-01
                       3.9049770438E-01  5.3534685657E-01  9.3593628602E-01
                       3.5346856570E-02  8.9049770438E-01  4.3593628602E-01
                       4.3593628602E-01  3.5346856570E-02  8.9049770438E-01
                       8.9049770438E-01  4.3593628602E-01  3.5346856570E-02
                       5.3534685657E-01  9.3593628602E-01  3.9049770438E-01
                       9.3593628602E-01  3.9049770438E-01  5.3534685657E-01
             xred3    -4.1583929770E-03 -4.1583929770E-03 -4.1583929770E-03
                       4.9584160702E-01  4.9584160702E-01  4.9584160702E-01
                       2.2264239232E-01  2.2264239232E-01  2.2264239232E-01
                       7.2264239232E-01  7.2264239232E-01  7.2264239232E-01
                       3.9057377315E-01  5.3545899688E-01  9.3597323063E-01
                       3.5458996876E-02  8.9057377315E-01  4.3597323063E-01
                       4.3597323063E-01  3.5458996876E-02  8.9057377315E-01
                       8.9057377315E-01  4.3597323063E-01  3.5458996876E-02
                       5.3545899688E-01  9.3597323063E-01  3.9057377315E-01
                       9.3597323063E-01  3.9057377315E-01  5.3545899688E-01
             xred4    -4.0149795796E-03 -4.0149795796E-03 -4.0149795796E-03
                       4.9598502042E-01  4.9598502042E-01  4.9598502042E-01
                       2.2200926610E-01  2.2200926610E-01  2.2200926610E-01
                       7.2200926610E-01  7.2200926610E-01  7.2200926610E-01
                       3.9087089759E-01  5.3556819019E-01  9.3605662570E-01
                       3.5568190186E-02  8.9087089759E-01  4.3605662570E-01
                       4.3605662570E-01  3.5568190186E-02  8.9087089759E-01
                       8.9087089759E-01  4.3605662570E-01  3.5568190186E-02
                       5.3556819019E-01  9.3605662570E-01  3.9087089759E-01
                       9.3605662570E-01  3.9087089759E-01  5.3556819019E-01
             xred5    -3.9510945816E-03 -3.9510945816E-03 -3.9510945816E-03
                       4.9604890542E-01  4.9604890542E-01  4.9604890542E-01
                       2.2147279182E-01  2.2147279182E-01  2.2147279182E-01
                       7.2147279182E-01  7.2147279182E-01  7.2147279182E-01
                       3.9120800700E-01  5.3563542518E-01  9.3612487058E-01
                       3.5635425182E-02  8.9120800700E-01  4.3612487058E-01
                       4.3612487058E-01  3.5635425182E-02  8.9120800700E-01
                       8.9120800700E-01  4.3612487058E-01  3.5635425182E-02
                       5.3563542518E-01  9.3612487058E-01  3.9120800700E-01
                       9.3612487058E-01  3.9120800700E-01  5.3563542518E-01
             xred6    -3.9514940911E-03 -3.9514940911E-03 -3.9514940911E-03
                       4.9604850591E-01  4.9604850591E-01  4.9604850591E-01
                       2.2101441711E-01  2.2101441711E-01  2.2101441711E-01
                       7.2101441711E-01  7.2101441711E-01  7.2101441711E-01
                       3.9151404117E-01  5.3573933311E-01  9.3617370270E-01
                       3.5739333109E-02  8.9151404117E-01  4.3617370270E-01
                       4.3617370270E-01  3.5739333109E-02  8.9151404117E-01
                       8.9151404117E-01  4.3617370270E-01  3.5739333109E-02
                       5.3573933311E-01  9.3617370270E-01  3.9151404117E-01
                       9.3617370270E-01  3.9151404117E-01  5.3573933311E-01
             xred7    -3.9584505416E-03 -3.9584505416E-03 -3.9584505416E-03
                       4.9604154946E-01  4.9604154946E-01  4.9604154946E-01
                       2.2065585228E-01  2.2065585228E-01  2.2065585228E-01
                       7.2065585228E-01  7.2065585228E-01  7.2065585228E-01
                       3.9177041307E-01  5.3583319403E-01  9.3618899116E-01
                       3.5833194028E-02  8.9177041307E-01  4.3618899116E-01
                       4.3618899116E-01  3.5833194028E-02  8.9177041307E-01
                       8.9177041307E-01  4.3618899116E-01  3.5833194028E-02
                       5.3583319403E-01  9.3618899116E-01  3.9177041307E-01
                       9.3618899116E-01  3.9177041307E-01  5.3583319403E-01
             xred8    -3.9497184285E-03 -3.9497184285E-03 -3.9497184285E-03
                       4.9605028157E-01  4.9605028157E-01  4.9605028157E-01
                       2.2035289260E-01  2.2035289260E-01  2.2035289260E-01
                       7.2035289260E-01  7.2035289260E-01  7.2035289260E-01
                       3.9198286838E-01  5.3591008705E-01  9.3619387040E-01
                       3.5910087049E-02  8.9198286838E-01  4.3619387040E-01
                       4.3619387040E-01  3.5910087049E-02  8.9198286838E-01
                       8.9198286838E-01  4.3619387040E-01  3.5910087049E-02
                       5.3591008705E-01  9.3619387040E-01  3.9198286838E-01
                       9.3619387040E-01  3.9198286838E-01  5.3591008705E-01
             xred9    -3.9142136281E-03 -3.9142136281E-03 -3.9142136281E-03
                       4.9608578637E-01  4.9608578637E-01  4.9608578637E-01
                       2.2010159484E-01  2.2010159484E-01  2.2010159484E-01
                       7.2010159484E-01  7.2010159484E-01  7.2010159484E-01
                       3.9213157496E-01  5.3600985832E-01  9.3616118551E-01
                       3.6009858319E-02  8.9213157496E-01  4.3616118551E-01
                       4.3616118551E-01  3.6009858319E-02  8.9213157496E-01
                       8.9213157496E-01  4.3616118551E-01  3.6009858319E-02
                       5.3600985832E-01  9.3616118551E-01  3.9213157496E-01
                       9.3616118551E-01  3.9213157496E-01  5.3600985832E-01
             xred10   -3.8650045634E-03 -3.8650045634E-03 -3.8650045634E-03
                       4.9613499544E-01  4.9613499544E-01  4.9613499544E-01
                       2.1989319352E-01  2.1989319352E-01  2.1989319352E-01
                       7.1989319352E-01  7.1989319352E-01  7.1989319352E-01
                       3.9225630583E-01  5.3611261221E-01  9.3609289300E-01
                       3.6112612207E-02  8.9225630583E-01  4.3609289300E-01
                       4.3609289300E-01  3.6112612207E-02  8.9225630583E-01
                       8.9225630583E-01  4.3609289300E-01  3.6112612207E-02
                       5.3611261221E-01  9.3609289300E-01  3.9225630583E-01
                       9.3609289300E-01  3.9225630583E-01  5.3611261221E-01
             xred11   -3.8246666249E-03 -3.8246666249E-03 -3.8246666249E-03
                       4.9617533338E-01  4.9617533338E-01  4.9617533338E-01
                       2.1971102552E-01  2.1971102552E-01  2.1971102552E-01
                       7.1971102552E-01  7.1971102552E-01  7.1971102552E-01
                       3.9231749840E-01  5.3622635087E-01  9.3605979183E-01
                       3.6226350875E-02  8.9231749840E-01  4.3605979183E-01
                       4.3605979183E-01  3.6226350875E-02  8.9231749840E-01
                       8.9231749840E-01  4.3605979183E-01  3.6226350875E-02
                       5.3622635087E-01  9.3605979183E-01  3.9231749840E-01
                       9.3605979183E-01  3.9231749840E-01  5.3622635087E-01
            znucl       83.00000   26.00000    8.00000
 
================================================================================


- Timing analysis has been suppressed with timopt=0



================================================================================

 Suggested references for the acknowledgment of ABINIT usage.

 The users of ABINIT have little formal obligations with respect to the ABINIT group
 (those specified in the GNU General Public License, http://www.gnu.org/copyleft/gpl.txt).
 However, it is common practice in the scientific literature,
 to acknowledge the efforts of people that have made the research possible.
 In this spirit, please find below suggested citations of work written by ABINIT developers,
 corresponding to implementations inside of ABINIT that you have used in the present run.
 Note also that it will be of great value to readers of publications presenting these results,
 to read papers enabling them to understand the theoretical formalism and details
 of the ABINIT implementation.
 For information on why they are suggested, see also https://docs.abinit.org/theory/acknowledgments.
-
- [1] Gamma and beta cerium: DFT+U calculations of ground-state parameters.
- B. Amadon, F. Jollet and M. Torrent, Phys. Rev. B 77, 155104 (2008).
- Comment: DFT+U calculations, usepawu/=0. Strong suggestion to cite this paper.
- DOI and bibtex: see https://docs.abinit.org/theory/bibliography/#amadon2008a
-
- [2] Implementation of the Projector Augmented-Wave Method in the ABINIT code.
- M. Torrent, F. Jollet, F. Bottin, G. Zerah, and X. Gonze Comput. Mat. Science 42, 337, (2008).
- Comment: PAW calculations. Strong suggestion to cite this paper.
- DOI and bibtex: see https://docs.abinit.org/theory/bibliography/#torrent2008
-
- [3] Libxc: A library of exchange and correlation functionals for density functional theory.
- M.A.L. Marques, M.J.T. Oliveira, T. Burnus, Computer Physics Communications 183, 2227 (2012).
- Comment: to be cited when LibXC is used (negative value of ixc)
- Strong suggestion to cite this paper.
- DOI and bibtex: see https://docs.abinit.org/theory/bibliography/#marques2012
-
- [4] The Abinit project: Impact, environment and recent developments.
- Computer Phys. Comm. 248, 107042 (2020).
- X.Gonze, B. Amadon, G. Antonius, F.Arnardi, L.Baguet, J.-M.Beuken,
- J.Bieder, F.Bottin, J.Bouchet, E.Bousquet, N.Brouwer, F.Bruneval,
- G.Brunin, T.Cavignac, J.-B. Charraud, Wei Chen, M.Cote, S.Cottenier,
- J.Denier, G.Geneste, Ph.Ghosez, M.Giantomassi, Y.Gillet, O.Gingras,
- D.R.Hamann, G.Hautier, Xu He, N.Helbig, N.Holzwarth, Y.Jia, F.Jollet,
- W.Lafargue-Dit-Hauret, K.Lejaeghere, M.A.L.Marques, A.Martin, C.Martins,
- H.P.C. Miranda, F.Naccarato, K. Persson, G.Petretto, V.Planes, Y.Pouillon,
- S.Prokhorenko, F.Ricci, G.-M.Rignanese, A.H.Romero, M.M.Schmitt, M.Torrent,
- M.J.van Setten, B.Van Troeye, M.J.Verstraete, G.Zerah and J.W.Zwanzig
- Comment: the fifth generic paper describing the ABINIT project.
- Note that a version of this paper, that is not formatted for Computer Phys. Comm. 
- is available at https://www.abinit.org/sites/default/files/ABINIT20.pdf .
- The licence allows the authors to put it on the Web.
- DOI and bibtex: see https://docs.abinit.org/theory/bibliography/#gonze2020
-
- [5] ABINIT: Overview, and focus on selected capabilities
- J. Chem. Phys. 152, 124102 (2020).
- A. Romero, D.C. Allan, B. Amadon, G. Antonius, T. Applencourt, L.Baguet,
- J.Bieder, F.Bottin, J.Bouchet, E.Bousquet, F.Bruneval,
- G.Brunin, D.Caliste, M.Cote,
- J.Denier, C. Dreyer, Ph.Ghosez, M.Giantomassi, Y.Gillet, O.Gingras,
- D.R.Hamann, G.Hautier, F.Jollet, G. Jomard,
- A.Martin, 
- H.P.C. Miranda, F.Naccarato, G.Petretto, N.A. Pike, V.Planes,
- S.Prokhorenko, T. Rangel, F.Ricci, G.-M.Rignanese, M.Royo, M.Stengel, M.Torrent,
- M.J.van Setten, B.Van Troeye, M.J.Verstraete, J.Wiktor, J.W.Zwanziger, and X.Gonze.
- Comment: a global overview of ABINIT, with focus on selected capabilities .
- Note that a version of this paper, that is not formatted for J. Chem. Phys 
- is available at https://www.abinit.org/sites/default/files/ABINIT20_JPC.pdf .
- The licence allows the authors to put it on the Web.
- DOI and bibtex: see https://docs.abinit.org/theory/bibliography/#romero2020
-
- [6] Recent developments in the ABINIT software package.
- Computer Phys. Comm. 205, 106 (2016).
- X.Gonze, F.Jollet, F.Abreu Araujo, D.Adams, B.Amadon, T.Applencourt,
- C.Audouze, J.-M.Beuken, J.Bieder, A.Bokhanchuk, E.Bousquet, F.Bruneval
- D.Caliste, M.Cote, F.Dahm, F.Da Pieve, M.Delaveau, M.Di Gennaro,
- B.Dorado, C.Espejo, G.Geneste, L.Genovese, A.Gerossier, M.Giantomassi,
- Y.Gillet, D.R.Hamann, L.He, G.Jomard, J.Laflamme Janssen, S.Le Roux,
- A.Levitt, A.Lherbier, F.Liu, I.Lukacevic, A.Martin, C.Martins,
- M.J.T.Oliveira, S.Ponce, Y.Pouillon, T.Rangel, G.-M.Rignanese,
- A.H.Romero, B.Rousseau, O.Rubel, A.A.Shukri, M.Stankovski, M.Torrent,
- M.J.Van Setten, B.Van Troeye, M.J.Verstraete, D.Waroquier, J.Wiktor,
- B.Xu, A.Zhou, J.W.Zwanziger.
- Comment: the fourth generic paper describing the ABINIT project.
- Note that a version of this paper, that is not formatted for Computer Phys. Comm. 
- is available at https://www.abinit.org/sites/default/files/ABINIT16.pdf .
- The licence allows the authors to put it on the Web.
- DOI and bibtex: see https://docs.abinit.org/theory/bibliography/#gonze2016
-
- Proc.   0 individual time (sec): cpu=       8190.1  wall=       8221.1
 
================================================================================
 
 Calculation completed.
.Delivered   0 WARNINGs and   0 COMMENTs to log file.
+Overall time at end (sec) : cpu=     525832.9  wall=     526147.9
